 # Fcc Pd oriented X=[100] Y=[010] Z=[001].
  
       10976  atoms
           2  atom types
 
      0.000000000000      54.460000000000  xlo xhi
      0.000000000000      54.460000000000  ylo yhi
      0.000000000000      54.460000000000  zlo zhi
 
 
Atoms # atomic

1 	 1 	 0.000000000000 	 0.000000000000 	 0.000000000000
2 	 2 	 1.945000000000 	 1.945000000000 	 0.000000000000
3 	 2 	 0.000000000000 	 1.945000000000 	 1.945000000000
4 	 2 	 1.945000000000 	 0.000000000000 	 1.945000000000
5 	 2 	 3.890000000000 	 0.000000000000 	 0.000000000000
6 	 1 	 5.835000000000 	 1.945000000000 	 0.000000000000
7 	 2 	 3.890000000000 	 1.945000000000 	 1.945000000000
8 	 2 	 5.835000000000 	 0.000000000000 	 1.945000000000
9 	 2 	 7.780000000000 	 0.000000000000 	 0.000000000000
10 	 2 	 9.725000000000 	 1.945000000000 	 0.000000000000
11 	 2 	 7.780000000000 	 1.945000000000 	 1.945000000000
12 	 2 	 9.725000000000 	 0.000000000000 	 1.945000000000
13 	 2 	 11.670000000000 	 0.000000000000 	 0.000000000000
14 	 1 	 13.615000000000 	 1.945000000000 	 0.000000000000
15 	 1 	 11.670000000000 	 1.945000000000 	 1.945000000000
16 	 2 	 13.615000000000 	 0.000000000000 	 1.945000000000
17 	 2 	 15.560000000000 	 0.000000000000 	 0.000000000000
18 	 2 	 17.505000000000 	 1.945000000000 	 0.000000000000
19 	 2 	 15.560000000000 	 1.945000000000 	 1.945000000000
20 	 1 	 17.505000000000 	 0.000000000000 	 1.945000000000
21 	 2 	 19.450000000000 	 0.000000000000 	 0.000000000000
22 	 1 	 21.395000000000 	 1.945000000000 	 0.000000000000
23 	 1 	 19.450000000000 	 1.945000000000 	 1.945000000000
24 	 1 	 21.395000000000 	 0.000000000000 	 1.945000000000
25 	 1 	 23.340000000000 	 0.000000000000 	 0.000000000000
26 	 1 	 25.285000000000 	 1.945000000000 	 0.000000000000
27 	 2 	 23.340000000000 	 1.945000000000 	 1.945000000000
28 	 1 	 25.285000000000 	 0.000000000000 	 1.945000000000
29 	 1 	 27.230000000000 	 0.000000000000 	 0.000000000000
30 	 1 	 29.175000000000 	 1.945000000000 	 0.000000000000
31 	 2 	 27.230000000000 	 1.945000000000 	 1.945000000000
32 	 2 	 29.175000000000 	 0.000000000000 	 1.945000000000
33 	 2 	 31.120000000000 	 0.000000000000 	 0.000000000000
34 	 2 	 33.065000000000 	 1.945000000000 	 0.000000000000
35 	 2 	 31.120000000000 	 1.945000000000 	 1.945000000000
36 	 1 	 33.065000000000 	 0.000000000000 	 1.945000000000
37 	 1 	 35.010000000000 	 0.000000000000 	 0.000000000000
38 	 1 	 36.955000000000 	 1.945000000000 	 0.000000000000
39 	 1 	 35.010000000000 	 1.945000000000 	 1.945000000000
40 	 2 	 36.955000000000 	 0.000000000000 	 1.945000000000
41 	 1 	 38.900000000000 	 0.000000000000 	 0.000000000000
42 	 2 	 40.845000000000 	 1.945000000000 	 0.000000000000
43 	 2 	 38.900000000000 	 1.945000000000 	 1.945000000000
44 	 1 	 40.845000000000 	 0.000000000000 	 1.945000000000
45 	 1 	 42.790000000000 	 0.000000000000 	 0.000000000000
46 	 2 	 44.735000000000 	 1.945000000000 	 0.000000000000
47 	 1 	 42.790000000000 	 1.945000000000 	 1.945000000000
48 	 1 	 44.735000000000 	 0.000000000000 	 1.945000000000
49 	 1 	 46.680000000000 	 0.000000000000 	 0.000000000000
50 	 1 	 48.625000000000 	 1.945000000000 	 0.000000000000
51 	 2 	 46.680000000000 	 1.945000000000 	 1.945000000000
52 	 1 	 48.625000000000 	 0.000000000000 	 1.945000000000
53 	 2 	 50.570000000000 	 0.000000000000 	 0.000000000000
54 	 2 	 52.515000000000 	 1.945000000000 	 0.000000000000
55 	 2 	 50.570000000000 	 1.945000000000 	 1.945000000000
56 	 2 	 52.515000000000 	 0.000000000000 	 1.945000000000
57 	 2 	 0.000000000000 	 3.890000000000 	 0.000000000000
58 	 1 	 1.945000000000 	 5.835000000000 	 0.000000000000
59 	 1 	 0.000000000000 	 5.835000000000 	 1.945000000000
60 	 2 	 1.945000000000 	 3.890000000000 	 1.945000000000
61 	 2 	 3.890000000000 	 3.890000000000 	 0.000000000000
62 	 2 	 5.835000000000 	 5.835000000000 	 0.000000000000
63 	 1 	 3.890000000000 	 5.835000000000 	 1.945000000000
64 	 1 	 5.835000000000 	 3.890000000000 	 1.945000000000
65 	 2 	 7.780000000000 	 3.890000000000 	 0.000000000000
66 	 2 	 9.725000000000 	 5.835000000000 	 0.000000000000
67 	 1 	 7.780000000000 	 5.835000000000 	 1.945000000000
68 	 2 	 9.725000000000 	 3.890000000000 	 1.945000000000
69 	 1 	 11.670000000000 	 3.890000000000 	 0.000000000000
70 	 1 	 13.615000000000 	 5.835000000000 	 0.000000000000
71 	 1 	 11.670000000000 	 5.835000000000 	 1.945000000000
72 	 2 	 13.615000000000 	 3.890000000000 	 1.945000000000
73 	 1 	 15.560000000000 	 3.890000000000 	 0.000000000000
74 	 2 	 17.505000000000 	 5.835000000000 	 0.000000000000
75 	 1 	 15.560000000000 	 5.835000000000 	 1.945000000000
76 	 2 	 17.505000000000 	 3.890000000000 	 1.945000000000
77 	 1 	 19.450000000000 	 3.890000000000 	 0.000000000000
78 	 1 	 21.395000000000 	 5.835000000000 	 0.000000000000
79 	 1 	 19.450000000000 	 5.835000000000 	 1.945000000000
80 	 1 	 21.395000000000 	 3.890000000000 	 1.945000000000
81 	 2 	 23.340000000000 	 3.890000000000 	 0.000000000000
82 	 2 	 25.285000000000 	 5.835000000000 	 0.000000000000
83 	 2 	 23.340000000000 	 5.835000000000 	 1.945000000000
84 	 1 	 25.285000000000 	 3.890000000000 	 1.945000000000
85 	 2 	 27.230000000000 	 3.890000000000 	 0.000000000000
86 	 2 	 29.175000000000 	 5.835000000000 	 0.000000000000
87 	 2 	 27.230000000000 	 5.835000000000 	 1.945000000000
88 	 2 	 29.175000000000 	 3.890000000000 	 1.945000000000
89 	 2 	 31.120000000000 	 3.890000000000 	 0.000000000000
90 	 1 	 33.065000000000 	 5.835000000000 	 0.000000000000
91 	 1 	 31.120000000000 	 5.835000000000 	 1.945000000000
92 	 1 	 33.065000000000 	 3.890000000000 	 1.945000000000
93 	 1 	 35.010000000000 	 3.890000000000 	 0.000000000000
94 	 1 	 36.955000000000 	 5.835000000000 	 0.000000000000
95 	 2 	 35.010000000000 	 5.835000000000 	 1.945000000000
96 	 2 	 36.955000000000 	 3.890000000000 	 1.945000000000
97 	 1 	 38.900000000000 	 3.890000000000 	 0.000000000000
98 	 2 	 40.845000000000 	 5.835000000000 	 0.000000000000
99 	 1 	 38.900000000000 	 5.835000000000 	 1.945000000000
100 	 1 	 40.845000000000 	 3.890000000000 	 1.945000000000
101 	 2 	 42.790000000000 	 3.890000000000 	 0.000000000000
102 	 2 	 44.735000000000 	 5.835000000000 	 0.000000000000
103 	 1 	 42.790000000000 	 5.835000000000 	 1.945000000000
104 	 1 	 44.735000000000 	 3.890000000000 	 1.945000000000
105 	 1 	 46.680000000000 	 3.890000000000 	 0.000000000000
106 	 2 	 48.625000000000 	 5.835000000000 	 0.000000000000
107 	 1 	 46.680000000000 	 5.835000000000 	 1.945000000000
108 	 1 	 48.625000000000 	 3.890000000000 	 1.945000000000
109 	 1 	 50.570000000000 	 3.890000000000 	 0.000000000000
110 	 1 	 52.515000000000 	 5.835000000000 	 0.000000000000
111 	 2 	 50.570000000000 	 5.835000000000 	 1.945000000000
112 	 1 	 52.515000000000 	 3.890000000000 	 1.945000000000
113 	 2 	 0.000000000000 	 7.780000000000 	 0.000000000000
114 	 1 	 1.945000000000 	 9.725000000000 	 0.000000000000
115 	 1 	 0.000000000000 	 9.725000000000 	 1.945000000000
116 	 2 	 1.945000000000 	 7.780000000000 	 1.945000000000
117 	 2 	 3.890000000000 	 7.780000000000 	 0.000000000000
118 	 2 	 5.835000000000 	 9.725000000000 	 0.000000000000
119 	 1 	 3.890000000000 	 9.725000000000 	 1.945000000000
120 	 1 	 5.835000000000 	 7.780000000000 	 1.945000000000
121 	 2 	 7.780000000000 	 7.780000000000 	 0.000000000000
122 	 2 	 9.725000000000 	 9.725000000000 	 0.000000000000
123 	 1 	 7.780000000000 	 9.725000000000 	 1.945000000000
124 	 1 	 9.725000000000 	 7.780000000000 	 1.945000000000
125 	 2 	 11.670000000000 	 7.780000000000 	 0.000000000000
126 	 2 	 13.615000000000 	 9.725000000000 	 0.000000000000
127 	 1 	 11.670000000000 	 9.725000000000 	 1.945000000000
128 	 2 	 13.615000000000 	 7.780000000000 	 1.945000000000
129 	 2 	 15.560000000000 	 7.780000000000 	 0.000000000000
130 	 2 	 17.505000000000 	 9.725000000000 	 0.000000000000
131 	 1 	 15.560000000000 	 9.725000000000 	 1.945000000000
132 	 2 	 17.505000000000 	 7.780000000000 	 1.945000000000
133 	 1 	 19.450000000000 	 7.780000000000 	 0.000000000000
134 	 1 	 21.395000000000 	 9.725000000000 	 0.000000000000
135 	 2 	 19.450000000000 	 9.725000000000 	 1.945000000000
136 	 2 	 21.395000000000 	 7.780000000000 	 1.945000000000
137 	 2 	 23.340000000000 	 7.780000000000 	 0.000000000000
138 	 1 	 25.285000000000 	 9.725000000000 	 0.000000000000
139 	 2 	 23.340000000000 	 9.725000000000 	 1.945000000000
140 	 2 	 25.285000000000 	 7.780000000000 	 1.945000000000
141 	 2 	 27.230000000000 	 7.780000000000 	 0.000000000000
142 	 1 	 29.175000000000 	 9.725000000000 	 0.000000000000
143 	 1 	 27.230000000000 	 9.725000000000 	 1.945000000000
144 	 1 	 29.175000000000 	 7.780000000000 	 1.945000000000
145 	 2 	 31.120000000000 	 7.780000000000 	 0.000000000000
146 	 1 	 33.065000000000 	 9.725000000000 	 0.000000000000
147 	 2 	 31.120000000000 	 9.725000000000 	 1.945000000000
148 	 1 	 33.065000000000 	 7.780000000000 	 1.945000000000
149 	 2 	 35.010000000000 	 7.780000000000 	 0.000000000000
150 	 2 	 36.955000000000 	 9.725000000000 	 0.000000000000
151 	 1 	 35.010000000000 	 9.725000000000 	 1.945000000000
152 	 2 	 36.955000000000 	 7.780000000000 	 1.945000000000
153 	 2 	 38.900000000000 	 7.780000000000 	 0.000000000000
154 	 2 	 40.845000000000 	 9.725000000000 	 0.000000000000
155 	 1 	 38.900000000000 	 9.725000000000 	 1.945000000000
156 	 2 	 40.845000000000 	 7.780000000000 	 1.945000000000
157 	 2 	 42.790000000000 	 7.780000000000 	 0.000000000000
158 	 1 	 44.735000000000 	 9.725000000000 	 0.000000000000
159 	 2 	 42.790000000000 	 9.725000000000 	 1.945000000000
160 	 1 	 44.735000000000 	 7.780000000000 	 1.945000000000
161 	 2 	 46.680000000000 	 7.780000000000 	 0.000000000000
162 	 1 	 48.625000000000 	 9.725000000000 	 0.000000000000
163 	 2 	 46.680000000000 	 9.725000000000 	 1.945000000000
164 	 1 	 48.625000000000 	 7.780000000000 	 1.945000000000
165 	 1 	 50.570000000000 	 7.780000000000 	 0.000000000000
166 	 1 	 52.515000000000 	 9.725000000000 	 0.000000000000
167 	 2 	 50.570000000000 	 9.725000000000 	 1.945000000000
168 	 2 	 52.515000000000 	 7.780000000000 	 1.945000000000
169 	 1 	 0.000000000000 	 11.670000000000 	 0.000000000000
170 	 2 	 1.945000000000 	 13.615000000000 	 0.000000000000
171 	 1 	 0.000000000000 	 13.615000000000 	 1.945000000000
172 	 1 	 1.945000000000 	 11.670000000000 	 1.945000000000
173 	 1 	 3.890000000000 	 11.670000000000 	 0.000000000000
174 	 1 	 5.835000000000 	 13.615000000000 	 0.000000000000
175 	 2 	 3.890000000000 	 13.615000000000 	 1.945000000000
176 	 1 	 5.835000000000 	 11.670000000000 	 1.945000000000
177 	 2 	 7.780000000000 	 11.670000000000 	 0.000000000000
178 	 1 	 9.725000000000 	 13.615000000000 	 0.000000000000
179 	 1 	 7.780000000000 	 13.615000000000 	 1.945000000000
180 	 1 	 9.725000000000 	 11.670000000000 	 1.945000000000
181 	 1 	 11.670000000000 	 11.670000000000 	 0.000000000000
182 	 1 	 13.615000000000 	 13.615000000000 	 0.000000000000
183 	 1 	 11.670000000000 	 13.615000000000 	 1.945000000000
184 	 2 	 13.615000000000 	 11.670000000000 	 1.945000000000
185 	 2 	 15.560000000000 	 11.670000000000 	 0.000000000000
186 	 2 	 17.505000000000 	 13.615000000000 	 0.000000000000
187 	 1 	 15.560000000000 	 13.615000000000 	 1.945000000000
188 	 2 	 17.505000000000 	 11.670000000000 	 1.945000000000
189 	 1 	 19.450000000000 	 11.670000000000 	 0.000000000000
190 	 2 	 21.395000000000 	 13.615000000000 	 0.000000000000
191 	 2 	 19.450000000000 	 13.615000000000 	 1.945000000000
192 	 1 	 21.395000000000 	 11.670000000000 	 1.945000000000
193 	 2 	 23.340000000000 	 11.670000000000 	 0.000000000000
194 	 2 	 25.285000000000 	 13.615000000000 	 0.000000000000
195 	 2 	 23.340000000000 	 13.615000000000 	 1.945000000000
196 	 1 	 25.285000000000 	 11.670000000000 	 1.945000000000
197 	 2 	 27.230000000000 	 11.670000000000 	 0.000000000000
198 	 2 	 29.175000000000 	 13.615000000000 	 0.000000000000
199 	 2 	 27.230000000000 	 13.615000000000 	 1.945000000000
200 	 2 	 29.175000000000 	 11.670000000000 	 1.945000000000
201 	 1 	 31.120000000000 	 11.670000000000 	 0.000000000000
202 	 1 	 33.065000000000 	 13.615000000000 	 0.000000000000
203 	 2 	 31.120000000000 	 13.615000000000 	 1.945000000000
204 	 2 	 33.065000000000 	 11.670000000000 	 1.945000000000
205 	 1 	 35.010000000000 	 11.670000000000 	 0.000000000000
206 	 2 	 36.955000000000 	 13.615000000000 	 0.000000000000
207 	 1 	 35.010000000000 	 13.615000000000 	 1.945000000000
208 	 2 	 36.955000000000 	 11.670000000000 	 1.945000000000
209 	 1 	 38.900000000000 	 11.670000000000 	 0.000000000000
210 	 1 	 40.845000000000 	 13.615000000000 	 0.000000000000
211 	 1 	 38.900000000000 	 13.615000000000 	 1.945000000000
212 	 2 	 40.845000000000 	 11.670000000000 	 1.945000000000
213 	 2 	 42.790000000000 	 11.670000000000 	 0.000000000000
214 	 1 	 44.735000000000 	 13.615000000000 	 0.000000000000
215 	 2 	 42.790000000000 	 13.615000000000 	 1.945000000000
216 	 2 	 44.735000000000 	 11.670000000000 	 1.945000000000
217 	 1 	 46.680000000000 	 11.670000000000 	 0.000000000000
218 	 2 	 48.625000000000 	 13.615000000000 	 0.000000000000
219 	 2 	 46.680000000000 	 13.615000000000 	 1.945000000000
220 	 2 	 48.625000000000 	 11.670000000000 	 1.945000000000
221 	 1 	 50.570000000000 	 11.670000000000 	 0.000000000000
222 	 2 	 52.515000000000 	 13.615000000000 	 0.000000000000
223 	 1 	 50.570000000000 	 13.615000000000 	 1.945000000000
224 	 1 	 52.515000000000 	 11.670000000000 	 1.945000000000
225 	 1 	 0.000000000000 	 15.560000000000 	 0.000000000000
226 	 1 	 1.945000000000 	 17.505000000000 	 0.000000000000
227 	 2 	 0.000000000000 	 17.505000000000 	 1.945000000000
228 	 2 	 1.945000000000 	 15.560000000000 	 1.945000000000
229 	 1 	 3.890000000000 	 15.560000000000 	 0.000000000000
230 	 2 	 5.835000000000 	 17.505000000000 	 0.000000000000
231 	 1 	 3.890000000000 	 17.505000000000 	 1.945000000000
232 	 1 	 5.835000000000 	 15.560000000000 	 1.945000000000
233 	 1 	 7.780000000000 	 15.560000000000 	 0.000000000000
234 	 2 	 9.725000000000 	 17.505000000000 	 0.000000000000
235 	 2 	 7.780000000000 	 17.505000000000 	 1.945000000000
236 	 1 	 9.725000000000 	 15.560000000000 	 1.945000000000
237 	 2 	 11.670000000000 	 15.560000000000 	 0.000000000000
238 	 2 	 13.615000000000 	 17.505000000000 	 0.000000000000
239 	 2 	 11.670000000000 	 17.505000000000 	 1.945000000000
240 	 2 	 13.615000000000 	 15.560000000000 	 1.945000000000
241 	 1 	 15.560000000000 	 15.560000000000 	 0.000000000000
242 	 2 	 17.505000000000 	 17.505000000000 	 0.000000000000
243 	 1 	 15.560000000000 	 17.505000000000 	 1.945000000000
244 	 1 	 17.505000000000 	 15.560000000000 	 1.945000000000
245 	 2 	 19.450000000000 	 15.560000000000 	 0.000000000000
246 	 1 	 21.395000000000 	 17.505000000000 	 0.000000000000
247 	 1 	 19.450000000000 	 17.505000000000 	 1.945000000000
248 	 1 	 21.395000000000 	 15.560000000000 	 1.945000000000
249 	 2 	 23.340000000000 	 15.560000000000 	 0.000000000000
250 	 1 	 25.285000000000 	 17.505000000000 	 0.000000000000
251 	 2 	 23.340000000000 	 17.505000000000 	 1.945000000000
252 	 1 	 25.285000000000 	 15.560000000000 	 1.945000000000
253 	 1 	 27.230000000000 	 15.560000000000 	 0.000000000000
254 	 1 	 29.175000000000 	 17.505000000000 	 0.000000000000
255 	 2 	 27.230000000000 	 17.505000000000 	 1.945000000000
256 	 2 	 29.175000000000 	 15.560000000000 	 1.945000000000
257 	 1 	 31.120000000000 	 15.560000000000 	 0.000000000000
258 	 2 	 33.065000000000 	 17.505000000000 	 0.000000000000
259 	 2 	 31.120000000000 	 17.505000000000 	 1.945000000000
260 	 1 	 33.065000000000 	 15.560000000000 	 1.945000000000
261 	 1 	 35.010000000000 	 15.560000000000 	 0.000000000000
262 	 1 	 36.955000000000 	 17.505000000000 	 0.000000000000
263 	 2 	 35.010000000000 	 17.505000000000 	 1.945000000000
264 	 1 	 36.955000000000 	 15.560000000000 	 1.945000000000
265 	 2 	 38.900000000000 	 15.560000000000 	 0.000000000000
266 	 1 	 40.845000000000 	 17.505000000000 	 0.000000000000
267 	 2 	 38.900000000000 	 17.505000000000 	 1.945000000000
268 	 2 	 40.845000000000 	 15.560000000000 	 1.945000000000
269 	 1 	 42.790000000000 	 15.560000000000 	 0.000000000000
270 	 2 	 44.735000000000 	 17.505000000000 	 0.000000000000
271 	 1 	 42.790000000000 	 17.505000000000 	 1.945000000000
272 	 2 	 44.735000000000 	 15.560000000000 	 1.945000000000
273 	 2 	 46.680000000000 	 15.560000000000 	 0.000000000000
274 	 2 	 48.625000000000 	 17.505000000000 	 0.000000000000
275 	 2 	 46.680000000000 	 17.505000000000 	 1.945000000000
276 	 2 	 48.625000000000 	 15.560000000000 	 1.945000000000
277 	 1 	 50.570000000000 	 15.560000000000 	 0.000000000000
278 	 1 	 52.515000000000 	 17.505000000000 	 0.000000000000
279 	 1 	 50.570000000000 	 17.505000000000 	 1.945000000000
280 	 1 	 52.515000000000 	 15.560000000000 	 1.945000000000
281 	 2 	 0.000000000000 	 19.450000000000 	 0.000000000000
282 	 2 	 1.945000000000 	 21.395000000000 	 0.000000000000
283 	 2 	 0.000000000000 	 21.395000000000 	 1.945000000000
284 	 1 	 1.945000000000 	 19.450000000000 	 1.945000000000
285 	 2 	 3.890000000000 	 19.450000000000 	 0.000000000000
286 	 2 	 5.835000000000 	 21.395000000000 	 0.000000000000
287 	 1 	 3.890000000000 	 21.395000000000 	 1.945000000000
288 	 2 	 5.835000000000 	 19.450000000000 	 1.945000000000
289 	 2 	 7.780000000000 	 19.450000000000 	 0.000000000000
290 	 1 	 9.725000000000 	 21.395000000000 	 0.000000000000
291 	 2 	 7.780000000000 	 21.395000000000 	 1.945000000000
292 	 1 	 9.725000000000 	 19.450000000000 	 1.945000000000
293 	 1 	 11.670000000000 	 19.450000000000 	 0.000000000000
294 	 1 	 13.615000000000 	 21.395000000000 	 0.000000000000
295 	 2 	 11.670000000000 	 21.395000000000 	 1.945000000000
296 	 2 	 13.615000000000 	 19.450000000000 	 1.945000000000
297 	 2 	 15.560000000000 	 19.450000000000 	 0.000000000000
298 	 1 	 17.505000000000 	 21.395000000000 	 0.000000000000
299 	 2 	 15.560000000000 	 21.395000000000 	 1.945000000000
300 	 2 	 17.505000000000 	 19.450000000000 	 1.945000000000
301 	 1 	 19.450000000000 	 19.450000000000 	 0.000000000000
302 	 1 	 21.395000000000 	 21.395000000000 	 0.000000000000
303 	 2 	 19.450000000000 	 21.395000000000 	 1.945000000000
304 	 2 	 21.395000000000 	 19.450000000000 	 1.945000000000
305 	 2 	 23.340000000000 	 19.450000000000 	 0.000000000000
306 	 2 	 25.285000000000 	 21.395000000000 	 0.000000000000
307 	 2 	 23.340000000000 	 21.395000000000 	 1.945000000000
308 	 1 	 25.285000000000 	 19.450000000000 	 1.945000000000
309 	 1 	 27.230000000000 	 19.450000000000 	 0.000000000000
310 	 1 	 29.175000000000 	 21.395000000000 	 0.000000000000
311 	 2 	 27.230000000000 	 21.395000000000 	 1.945000000000
312 	 2 	 29.175000000000 	 19.450000000000 	 1.945000000000
313 	 2 	 31.120000000000 	 19.450000000000 	 0.000000000000
314 	 2 	 33.065000000000 	 21.395000000000 	 0.000000000000
315 	 2 	 31.120000000000 	 21.395000000000 	 1.945000000000
316 	 2 	 33.065000000000 	 19.450000000000 	 1.945000000000
317 	 1 	 35.010000000000 	 19.450000000000 	 0.000000000000
318 	 1 	 36.955000000000 	 21.395000000000 	 0.000000000000
319 	 2 	 35.010000000000 	 21.395000000000 	 1.945000000000
320 	 1 	 36.955000000000 	 19.450000000000 	 1.945000000000
321 	 2 	 38.900000000000 	 19.450000000000 	 0.000000000000
322 	 1 	 40.845000000000 	 21.395000000000 	 0.000000000000
323 	 1 	 38.900000000000 	 21.395000000000 	 1.945000000000
324 	 1 	 40.845000000000 	 19.450000000000 	 1.945000000000
325 	 1 	 42.790000000000 	 19.450000000000 	 0.000000000000
326 	 1 	 44.735000000000 	 21.395000000000 	 0.000000000000
327 	 1 	 42.790000000000 	 21.395000000000 	 1.945000000000
328 	 1 	 44.735000000000 	 19.450000000000 	 1.945000000000
329 	 2 	 46.680000000000 	 19.450000000000 	 0.000000000000
330 	 2 	 48.625000000000 	 21.395000000000 	 0.000000000000
331 	 1 	 46.680000000000 	 21.395000000000 	 1.945000000000
332 	 2 	 48.625000000000 	 19.450000000000 	 1.945000000000
333 	 2 	 50.570000000000 	 19.450000000000 	 0.000000000000
334 	 2 	 52.515000000000 	 21.395000000000 	 0.000000000000
335 	 1 	 50.570000000000 	 21.395000000000 	 1.945000000000
336 	 1 	 52.515000000000 	 19.450000000000 	 1.945000000000
337 	 2 	 0.000000000000 	 23.340000000000 	 0.000000000000
338 	 1 	 1.945000000000 	 25.285000000000 	 0.000000000000
339 	 1 	 0.000000000000 	 25.285000000000 	 1.945000000000
340 	 2 	 1.945000000000 	 23.340000000000 	 1.945000000000
341 	 2 	 3.890000000000 	 23.340000000000 	 0.000000000000
342 	 2 	 5.835000000000 	 25.285000000000 	 0.000000000000
343 	 2 	 3.890000000000 	 25.285000000000 	 1.945000000000
344 	 2 	 5.835000000000 	 23.340000000000 	 1.945000000000
345 	 2 	 7.780000000000 	 23.340000000000 	 0.000000000000
346 	 1 	 9.725000000000 	 25.285000000000 	 0.000000000000
347 	 1 	 7.780000000000 	 25.285000000000 	 1.945000000000
348 	 1 	 9.725000000000 	 23.340000000000 	 1.945000000000
349 	 2 	 11.670000000000 	 23.340000000000 	 0.000000000000
350 	 2 	 13.615000000000 	 25.285000000000 	 0.000000000000
351 	 2 	 11.670000000000 	 25.285000000000 	 1.945000000000
352 	 2 	 13.615000000000 	 23.340000000000 	 1.945000000000
353 	 2 	 15.560000000000 	 23.340000000000 	 0.000000000000
354 	 1 	 17.505000000000 	 25.285000000000 	 0.000000000000
355 	 2 	 15.560000000000 	 25.285000000000 	 1.945000000000
356 	 2 	 17.505000000000 	 23.340000000000 	 1.945000000000
357 	 1 	 19.450000000000 	 23.340000000000 	 0.000000000000
358 	 1 	 21.395000000000 	 25.285000000000 	 0.000000000000
359 	 2 	 19.450000000000 	 25.285000000000 	 1.945000000000
360 	 1 	 21.395000000000 	 23.340000000000 	 1.945000000000
361 	 1 	 23.340000000000 	 23.340000000000 	 0.000000000000
362 	 1 	 25.285000000000 	 25.285000000000 	 0.000000000000
363 	 2 	 23.340000000000 	 25.285000000000 	 1.945000000000
364 	 2 	 25.285000000000 	 23.340000000000 	 1.945000000000
365 	 2 	 27.230000000000 	 23.340000000000 	 0.000000000000
366 	 2 	 29.175000000000 	 25.285000000000 	 0.000000000000
367 	 2 	 27.230000000000 	 25.285000000000 	 1.945000000000
368 	 2 	 29.175000000000 	 23.340000000000 	 1.945000000000
369 	 2 	 31.120000000000 	 23.340000000000 	 0.000000000000
370 	 1 	 33.065000000000 	 25.285000000000 	 0.000000000000
371 	 1 	 31.120000000000 	 25.285000000000 	 1.945000000000
372 	 1 	 33.065000000000 	 23.340000000000 	 1.945000000000
373 	 2 	 35.010000000000 	 23.340000000000 	 0.000000000000
374 	 2 	 36.955000000000 	 25.285000000000 	 0.000000000000
375 	 2 	 35.010000000000 	 25.285000000000 	 1.945000000000
376 	 1 	 36.955000000000 	 23.340000000000 	 1.945000000000
377 	 2 	 38.900000000000 	 23.340000000000 	 0.000000000000
378 	 1 	 40.845000000000 	 25.285000000000 	 0.000000000000
379 	 2 	 38.900000000000 	 25.285000000000 	 1.945000000000
380 	 1 	 40.845000000000 	 23.340000000000 	 1.945000000000
381 	 1 	 42.790000000000 	 23.340000000000 	 0.000000000000
382 	 2 	 44.735000000000 	 25.285000000000 	 0.000000000000
383 	 2 	 42.790000000000 	 25.285000000000 	 1.945000000000
384 	 2 	 44.735000000000 	 23.340000000000 	 1.945000000000
385 	 2 	 46.680000000000 	 23.340000000000 	 0.000000000000
386 	 1 	 48.625000000000 	 25.285000000000 	 0.000000000000
387 	 2 	 46.680000000000 	 25.285000000000 	 1.945000000000
388 	 1 	 48.625000000000 	 23.340000000000 	 1.945000000000
389 	 1 	 50.570000000000 	 23.340000000000 	 0.000000000000
390 	 2 	 52.515000000000 	 25.285000000000 	 0.000000000000
391 	 1 	 50.570000000000 	 25.285000000000 	 1.945000000000
392 	 2 	 52.515000000000 	 23.340000000000 	 1.945000000000
393 	 2 	 0.000000000000 	 27.230000000000 	 0.000000000000
394 	 2 	 1.945000000000 	 29.175000000000 	 0.000000000000
395 	 2 	 0.000000000000 	 29.175000000000 	 1.945000000000
396 	 2 	 1.945000000000 	 27.230000000000 	 1.945000000000
397 	 2 	 3.890000000000 	 27.230000000000 	 0.000000000000
398 	 2 	 5.835000000000 	 29.175000000000 	 0.000000000000
399 	 2 	 3.890000000000 	 29.175000000000 	 1.945000000000
400 	 2 	 5.835000000000 	 27.230000000000 	 1.945000000000
401 	 1 	 7.780000000000 	 27.230000000000 	 0.000000000000
402 	 2 	 9.725000000000 	 29.175000000000 	 0.000000000000
403 	 2 	 7.780000000000 	 29.175000000000 	 1.945000000000
404 	 1 	 9.725000000000 	 27.230000000000 	 1.945000000000
405 	 1 	 11.670000000000 	 27.230000000000 	 0.000000000000
406 	 1 	 13.615000000000 	 29.175000000000 	 0.000000000000
407 	 1 	 11.670000000000 	 29.175000000000 	 1.945000000000
408 	 1 	 13.615000000000 	 27.230000000000 	 1.945000000000
409 	 2 	 15.560000000000 	 27.230000000000 	 0.000000000000
410 	 2 	 17.505000000000 	 29.175000000000 	 0.000000000000
411 	 1 	 15.560000000000 	 29.175000000000 	 1.945000000000
412 	 1 	 17.505000000000 	 27.230000000000 	 1.945000000000
413 	 2 	 19.450000000000 	 27.230000000000 	 0.000000000000
414 	 1 	 21.395000000000 	 29.175000000000 	 0.000000000000
415 	 1 	 19.450000000000 	 29.175000000000 	 1.945000000000
416 	 2 	 21.395000000000 	 27.230000000000 	 1.945000000000
417 	 1 	 23.340000000000 	 27.230000000000 	 0.000000000000
418 	 1 	 25.285000000000 	 29.175000000000 	 0.000000000000
419 	 1 	 23.340000000000 	 29.175000000000 	 1.945000000000
420 	 2 	 25.285000000000 	 27.230000000000 	 1.945000000000
421 	 2 	 27.230000000000 	 27.230000000000 	 0.000000000000
422 	 2 	 29.175000000000 	 29.175000000000 	 0.000000000000
423 	 2 	 27.230000000000 	 29.175000000000 	 1.945000000000
424 	 2 	 29.175000000000 	 27.230000000000 	 1.945000000000
425 	 2 	 31.120000000000 	 27.230000000000 	 0.000000000000
426 	 1 	 33.065000000000 	 29.175000000000 	 0.000000000000
427 	 1 	 31.120000000000 	 29.175000000000 	 1.945000000000
428 	 1 	 33.065000000000 	 27.230000000000 	 1.945000000000
429 	 2 	 35.010000000000 	 27.230000000000 	 0.000000000000
430 	 2 	 36.955000000000 	 29.175000000000 	 0.000000000000
431 	 2 	 35.010000000000 	 29.175000000000 	 1.945000000000
432 	 2 	 36.955000000000 	 27.230000000000 	 1.945000000000
433 	 1 	 38.900000000000 	 27.230000000000 	 0.000000000000
434 	 2 	 40.845000000000 	 29.175000000000 	 0.000000000000
435 	 2 	 38.900000000000 	 29.175000000000 	 1.945000000000
436 	 2 	 40.845000000000 	 27.230000000000 	 1.945000000000
437 	 2 	 42.790000000000 	 27.230000000000 	 0.000000000000
438 	 2 	 44.735000000000 	 29.175000000000 	 0.000000000000
439 	 2 	 42.790000000000 	 29.175000000000 	 1.945000000000
440 	 2 	 44.735000000000 	 27.230000000000 	 1.945000000000
441 	 2 	 46.680000000000 	 27.230000000000 	 0.000000000000
442 	 1 	 48.625000000000 	 29.175000000000 	 0.000000000000
443 	 2 	 46.680000000000 	 29.175000000000 	 1.945000000000
444 	 2 	 48.625000000000 	 27.230000000000 	 1.945000000000
445 	 2 	 50.570000000000 	 27.230000000000 	 0.000000000000
446 	 2 	 52.515000000000 	 29.175000000000 	 0.000000000000
447 	 2 	 50.570000000000 	 29.175000000000 	 1.945000000000
448 	 1 	 52.515000000000 	 27.230000000000 	 1.945000000000
449 	 1 	 0.000000000000 	 31.120000000000 	 0.000000000000
450 	 2 	 1.945000000000 	 33.065000000000 	 0.000000000000
451 	 2 	 0.000000000000 	 33.065000000000 	 1.945000000000
452 	 2 	 1.945000000000 	 31.120000000000 	 1.945000000000
453 	 1 	 3.890000000000 	 31.120000000000 	 0.000000000000
454 	 2 	 5.835000000000 	 33.065000000000 	 0.000000000000
455 	 2 	 3.890000000000 	 33.065000000000 	 1.945000000000
456 	 1 	 5.835000000000 	 31.120000000000 	 1.945000000000
457 	 1 	 7.780000000000 	 31.120000000000 	 0.000000000000
458 	 1 	 9.725000000000 	 33.065000000000 	 0.000000000000
459 	 1 	 7.780000000000 	 33.065000000000 	 1.945000000000
460 	 1 	 9.725000000000 	 31.120000000000 	 1.945000000000
461 	 1 	 11.670000000000 	 31.120000000000 	 0.000000000000
462 	 2 	 13.615000000000 	 33.065000000000 	 0.000000000000
463 	 1 	 11.670000000000 	 33.065000000000 	 1.945000000000
464 	 1 	 13.615000000000 	 31.120000000000 	 1.945000000000
465 	 2 	 15.560000000000 	 31.120000000000 	 0.000000000000
466 	 1 	 17.505000000000 	 33.065000000000 	 0.000000000000
467 	 1 	 15.560000000000 	 33.065000000000 	 1.945000000000
468 	 2 	 17.505000000000 	 31.120000000000 	 1.945000000000
469 	 2 	 19.450000000000 	 31.120000000000 	 0.000000000000
470 	 2 	 21.395000000000 	 33.065000000000 	 0.000000000000
471 	 2 	 19.450000000000 	 33.065000000000 	 1.945000000000
472 	 1 	 21.395000000000 	 31.120000000000 	 1.945000000000
473 	 2 	 23.340000000000 	 31.120000000000 	 0.000000000000
474 	 2 	 25.285000000000 	 33.065000000000 	 0.000000000000
475 	 1 	 23.340000000000 	 33.065000000000 	 1.945000000000
476 	 2 	 25.285000000000 	 31.120000000000 	 1.945000000000
477 	 2 	 27.230000000000 	 31.120000000000 	 0.000000000000
478 	 2 	 29.175000000000 	 33.065000000000 	 0.000000000000
479 	 2 	 27.230000000000 	 33.065000000000 	 1.945000000000
480 	 2 	 29.175000000000 	 31.120000000000 	 1.945000000000
481 	 2 	 31.120000000000 	 31.120000000000 	 0.000000000000
482 	 2 	 33.065000000000 	 33.065000000000 	 0.000000000000
483 	 1 	 31.120000000000 	 33.065000000000 	 1.945000000000
484 	 2 	 33.065000000000 	 31.120000000000 	 1.945000000000
485 	 1 	 35.010000000000 	 31.120000000000 	 0.000000000000