LAMMPS (22 Dec 2022)
OMP_NUM_THREADS environment is not set. Defaulting to 1 thread. (src/comm.cpp:98)
  using 1 OpenMP thread(s) per MPI task
Loaded 1 plugins from C:\Users\diego\AppData\Local\LAMMPS 64-bit 22Dec2022\plugins
package omp 2
set 2 OpenMP thread(s) per MPI task
using multi-threaded neighbor list subroutines
# AuPd nanoparticle, heating
#1 general
units		metal
dimension	3
atom_style      atomic
neighbor        0.3 bin

#2 structure
boundary	p p p
read_data	atoms14.lmp
Reading data file ...
  orthogonal box = (0 0 0) to (54.46 54.46 54.46)
  1 by 1 by 1 MPI processor grid
  reading atoms ...
  10976 atoms
  read_data CPU = 0.033 seconds
#mass        1 196.967
#mass		2 106.42


#3 variables
# Variables que controlan extension de simulacion
variable        tstep equal 0.001
variable nramp equal 200000
variable nequil equal 100000
variable nstat equal 100000
variable ntherm equal v_nequil/10
variable ndump equal v_nstat/20
# temperatura de melting
variable   tempm equal 1200
variable 	natoms equal "count(all)"
variable	temp0 equal 1.0
variable    	temp1 equal 1800
variable tempa equal v_tempm+50
variable    tempb equal v_tempm-50
variable    	temp2 equal 600
variable n1 equal (v_temp1-v_tempa)/50
variable n2 equal (v_tempa-v_tempb)/50
variable n3 equal (v_tempb-v_temp2)/50
variable	pressure equal 0.0
# temp1 -> tempa -> tempm -> tempb -> temp2

#4 potentials
pair_style eam/fs
pair_coeff * * AuPd.fs Au Pd

#5 optimize at 0 K
#dump           1 all custom 1 dump.minimization id type x y z
#fix		1 all box/relax dilate all #Para relajar la caja
#min_style	cg
#minimize	1.0e-6 1.06e-6 10000 10000
#run 1
#undump		1
#unfix		1

#6 optimize at T=1
compute		peratom all pe/atom
reset_timestep	0
timestep	${tstep}
timestep	0.001
#Se generan velocidades aleatorias
velocity	all create ${temp0} 12345 mom yes rot yes
velocity	all create 1 12345 mom yes rot yes
#Se realiza NPT
fix             1 all npt temp ${temp0} ${temp1} 0.1 iso 0.0 0.0 1.0
fix             1 all npt temp 1 ${temp1} 0.1 iso 0.0 0.0 1.0
fix             1 all npt temp 1 1800 0.1 iso 0.0 0.0 1.0
dump            1 all custom ${ndump} dump.${temp1} id type x y z c_peratom fx fy fz
dump            1 all custom 5000 dump.${temp1} id type x y z c_peratom fx fy fz
dump            1 all custom 5000 dump.1800 id type x y z c_peratom fx fy fz
dump_modify   	1 element Au Pd
thermo		${ntherm}
thermo		10000
thermo_style	custom step temp pe
#neigh_modify    once yes
run		${nequil}
run		100000
Last active /omp style is pair_style eam/fs/omp
Neighbor list info ...
  update: every = 1 steps, delay = 0 steps, check = yes
  max neighbors/atom: 2000, page size: 100000
  master list distance cutoff = 6.8
  ghost atom cutoff = 6.8
  binsize = 3.4, bins = 17 17 17
  1 neighbor lists, perpetual/occasional/extra = 1 0 0
  (1) pair eam/fs/omp, perpetual
      attributes: half, newton on, omp
      pair build: half/bin/atomonly/newton/omp
      stencil: half/bin/3d
      bin: standard
Per MPI rank memory allocation (min/avg/max) = 12.02 | 12.02 | 12.02 Mbytes
   Step          Temp          PotEng    
         0   1             -41591.09     
     10000   180.71069     -43190.76     
     20000   358.26423     -42907.549    
     30000   546.85454     -42625.584    
     40000   722.79716     -42313.459    
     50000   908.50354     -42007.491    
     60000   1080.1563     -41619.78     
     70000   1274.207      -41187.666    
     80000   1418.1956     -40175.914    
     90000   1615.5009     -39050.459    
    100000   1797.8586     -38591.76     
Loop time of 1041.49 on 2 procs for 100000 steps with 10976 atoms

Performance: 8.296 ns/day, 2.893 hours/ns, 96.016 timesteps/s, 1.054 Matom-step/s
28.4% CPU use with 1 MPI tasks x 2 OpenMP threads

MPI task timing breakdown:
Section |  min time  |  avg time  |  max time  |%varavg| %total
---------------------------------------------------------------
Pair    | 934.19     | 934.19     | 934.19     |   0.0 | 89.70
Neigh   | 55.045     | 55.045     | 55.045     |   0.0 |  5.29
Comm    | 7.579      | 7.579      | 7.579      |   0.0 |  0.73
Output  | 0.65262    | 0.65262    | 0.65262    |   0.0 |  0.06
Modify  | 39.696     | 39.696     | 39.696     |   0.0 |  3.81
Other   |            | 4.326      |            |       |  0.42

Nlocal:          10976 ave       10976 max       10976 min
Histogram: 1 0 0 0 0 0 0 0 0 0
Nghost:           9004 ave        9004 max        9004 min
Histogram: 1 0 0 0 0 0 0 0 0 0
Neighs:         331874 ave      331874 max      331874 min
Histogram: 1 0 0 0 0 0 0 0 0 0

Total # of neighbors = 331874
Ave neighs/atom = 30.236334
Neighbor list builds = 8758
Dangerous builds = 5uunfix		1
undump      1
#7 calentamiento
reset_timestep	0
#Se generan velocidades aleatorias a T inicial
#velocity	all create ${temp1} 12346 mom yes rot yes
variable	TEMPE equal "1.0*temp"
variable	PEA equal "pe/v_natoms"
#thermo_style	custom step pe temp PEA
fix		5 all print 1000 "${TEMPE}   ${PEA}" file TEMPvsPEA.dat screen no
fix		6 all ave/time 100 1000 400000 v_TEMPE v_PEA file ave.dat
compute myRDF all rdf 50
fix 7 all ave/time 100 1000 400000 c_myRDF[*] file tmp.rdf mode vector
#Comienza ciclo de enfriamiento
print	  	"Cooling starts, high temperature"
Cooling starts, high temperature
label		loop
variable	a loop ${n1}
variable	a loop 11
variable	newtemp1 equal v_temp1-(v_a-1)*50
variable	newtemp2 equal v_newtemp1-50
#Rampa de T
print	  	"Temperature ramp starts"
Temperature ramp starts
fix             1 all npt temp ${newtemp1} ${newtemp2} 0.1 iso 0.0 0.0 1.0
fix             1 all npt temp 1800 ${newtemp2} 0.1 iso 0.0 0.0 1.0
fix             1 all npt temp 1800 1750 0.1 iso 0.0 0.0 1.0
run		${nramp}
run		200000
Last active /omp style is pair_style eam/fs/omp
Neighbor list info ...
  update: every = 1 steps, delay = 0 steps, check = yes
  max neighbors/atom: 2000, page size: 100000
  master list distance cutoff = 6.8
  ghost atom cutoff = 6.8
  binsize = 3.4, bins = 19 19 19
  2 neighbor lists, perpetual/occasional/extra = 1 1 0
  (1) pair eam/fs/omp, perpetual
      attributes: half, newton on, omp
      pair build: half/bin/atomonly/newton/omp
      stencil: half/bin/3d
      bin: standard
  (2) compute rdf, occasional, copy from (1)
      attributes: half, newton on, omp
      pair build: copy
      stencil: none
      bin: none
Per MPI rank memory allocation (min/avg/max) = 9.259 | 9.259 | 9.259 Mbytes
   Step          Temp          PotEng    
         0   1797.8586     -38591.76     
     10000   1790.1354     -38616.386    
     20000   1801.6645     -38612.466    
     30000   1787.1733     -38584.124    
     40000   1776.2328     -38570.773    
     50000   1790.7091     -38631.286    
     60000   1795.7288     -38627.34     
     70000   1780.0678     -38638.989    
     80000   1790.3036     -38671.319    
     90000   1764.7021     -38683.009    
    100000   1796.0296     -38661.813    
    110000   1765.2765     -38652.757    
    120000   1775.9736     -38641.066    
    130000   1764.3751     -38671.636    
    140000   1760.4283     -38668.487    
    150000   1751.3993     -38679.49     
    160000   1744.5084     -38638.501    
    170000   1752.2925     -38713.049    
    180000   1760.0444     -38669.205    
    190000   1765.856      -38718.737    
    200000   1719.817      -38727.413    
Loop time of 1811.35 on 2 procs for 200000 steps with 10976 atoms

Performance: 9.540 ns/day, 2.516 hours/ns, 110.415 timesteps/s, 1.212 Matom-step/s
28.3% CPU use with 1 MPI tasks x 2 OpenMP threads

MPI task timing breakdown:
Section |  min time  |  avg time  |  max time  |%varavg| %total
---------------------------------------------------------------
Pair    | 1586.7     | 1586.7     | 1586.7     |   0.0 | 87.60
Neigh   | 125.12     | 125.12     | 125.12     |   0.0 |  6.91
Comm    | 14.622     | 14.622     | 14.622     |   0.0 |  0.81
Output  | 0.000591   | 0.000591   | 0.000591   |   0.0 |  0.00
Modify  | 76.161     | 76.161     | 76.161     |   0.0 |  4.20
Other   |            | 8.782      |            |       |  0.48

Nlocal:          10976 ave       10976 max       10976 min
Histogram: 1 0 0 0 0 0 0 0 0 0
Nghost:           8970 ave        8970 max        8970 min
Histogram: 1 0 0 0 0 0 0 0 0 0
Neighs:         333987 ave      333987 max      333987 min
Histogram: 1 0 0 0 0 0 0 0 0 0

Total # of neighbors = 333987
Ave neighs/atom = 30.428845
Neighbor list builds = 21760
Dangerous builds =unfiunfix		1
#Equilibrio a nueva T
print	  	"Equilibration starts"
Equilibration starts
fix		2 all npt temp ${newtemp2} ${newtemp2} 0.1 iso 0.0 0.0 1.0
fix		2 all npt temp 1750 ${newtemp2} 0.1 iso 0.0 0.0 1.0
fix		2 all npt temp 1750 1750 0.1 iso 0.0 0.0 1.0
run 		${nequil}
run 		100000
Last active /omp style is pair_style eam/fs/omp
Per MPI rank memory allocation (min/avg/max) = 9.26 | 9.26 | 9.26 Mbytes
   Step          Temp          PotEng    
    200000   1719.817      -38727.413    
    210000   1740.9845     -38758.134    
    220000   1756.4786     -38733.164    
    230000   1757.8486     -38696.142    
    240000   1741.7573     -38715.465    
    250000   1756.2852     -38752.141    
    260000   1766.5077     -38713.148    
    270000   1760.499      -38709.954    
    280000   1768.6963     -38741.85     
    290000   1764.0815     -38673.01     
    300000   1784.2381     -38727.937    
Loop time of 918.044 on 2 procs for 100000 steps with 10976 atoms

Performance: 9.411 ns/day, 2.550 hours/ns, 108.927 timesteps/s, 1.196 Matom-step/s
27.4% CPU use with 1 MPI tasks x 2 OpenMP threads

MPI task timing breakdown:
Section |  min time  |  avg time  |  max time  |%varavg| %total
---------------------------------------------------------------
Pair    | 806.19     | 806.19     | 806.19     |   0.0 | 87.82
Neigh   | 62.013     | 62.013     | 62.013     |   0.0 |  6.75
Comm    | 7.4271     | 7.4271     | 7.4271     |   0.0 |  0.81
Output  | 0.000294   | 0.000294   | 0.000294   |   0.0 |  0.00
Modify  | 38.079     | 38.079     | 38.079     |   0.0 |  4.15
Other   |            | 4.339      |            |       |  0.47

Nlocal:          10976 ave       10976 max       10976 min
Histogram: 1 0 0 0 0 0 0 0 0 0
Nghost:           9053 ave        9053 max        9053 min
Histogram: 1 0 0 0 0 0 0 0 0 0
Neighs:         333728 ave      333728 max      333728 min
Histogram: 1 0 0 0 0 0 0 0 0 0

Total # of neighbors = 333728
Ave neighs/atom = 30.405248
Neighbor list builds = 10795
Dangerous builds =unfiunfix		2
#Se colecta estadistica
print	  	"Stats collecting starts"
Stats collecting starts
fix		3 all npt temp ${newtemp2} ${newtemp2} 0.1 iso 0.0 0.0 1.0
fix		3 all npt temp 1750 ${newtemp2} 0.1 iso 0.0 0.0 1.0
fix		3 all npt temp 1750 1750 0.1 iso 0.0 0.0 1.0
dump            3 all custom ${ndump} dump.${newtemp2} id type x y z c_peratom fx fy fz
dump            3 all custom 5000 dump.${newtemp2} id type x y z c_peratom fx fy fz
dump            3 all custom 5000 dump.1750 id type x y z c_peratom fx fy fz
dump_modify   	3 element Au Pd
run		${nstat}
run		100000
Last active /omp style is pair_style eam/fs/omp
Per MPI rank memory allocation (min/avg/max) = 11.51 | 11.51 | 11.51 Mbytes
   Step          Temp          PotEng    
    300000   1784.2381     -38727.937    
    310000   1750.5186     -38724.9      
    320000   1755.3266     -38752.751    
    330000   1772.8878     -38680.819    
    340000   1744.5098     -38721.697    
    350000   1752.0688     -38738.333    
    360000   1762.7939     -38758.522    
    370000   1737.1341     -38724.858    
    380000   1756.8003     -38652.862    
    390000   1746.0789     -38708.671    
    400000   1764.4302     -38674.398    
Loop time of 919.875 on 2 procs for 100000 steps with 10976 atoms

Performance: 9.393 ns/day, 2.555 hours/ns, 108.710 timesteps/s, 1.193 Matom-step/s
27.8% CPU use with 1 MPI tasks x 2 OpenMP threads

MPI task timing breakdown:
Section |  min time  |  avg time  |  max time  |%varavg| %total
---------------------------------------------------------------
Pair    | 803.16     | 803.16     | 803.16     |   0.0 | 87.31
Neigh   | 62.065     | 62.065     | 62.065     |   0.0 |  6.75
Comm    | 7.4664     | 7.4664     | 7.4664     |   0.0 |  0.81
Output  | 0.63381    | 0.63381    | 0.63381    |   0.0 |  0.07
Modify  | 42.169     | 42.169     | 42.169     |   0.0 |  4.58
Other   |            | 4.385      |            |       |  0.48

Nlocal:          10976 ave       10976 max       10976 min
Histogram: 1 0 0 0 0 0 0 0 0 0
Nghost:           9071 ave        9071 max        9071 min
Histogram: 1 0 0 0 0 0 0 0 0 0
Neighs:         332472 ave      332472 max      332472 min
Histogram: 1 0 0 0 0 0 0 0 0 0

Total # of neighbors = 332472
Ave neighs/atom = 30.290816
Neighbor list builds = 10807
Dangerous builds =unfiunfix		3
undump		3
#if "${newtemp2} > ${tempa}" then "jump SELF break"
next a
jump SELF loop
variable	a loop ${n1}
variable	a loop 11
variable	newtemp1 equal v_temp1-(v_a-1)*50
variable	newtemp2 equal v_newtemp1-50
#Rampa de T
print	  	"Temperature ramp starts"
Temperature ramp starts
fix             1 all npt temp ${newtemp1} ${newtemp2} 0.1 iso 0.0 0.0 1.0
fix             1 all npt temp 1750 ${newtemp2} 0.1 iso 0.0 0.0 1.0
fix             1 all npt temp 1750 1700 0.1 iso 0.0 0.0 1.0
run		${nramp}
run		200000
Last active /omp style is pair_style eam/fs/omp
Per MPI rank memory allocation (min/avg/max) = 10.79 | 10.79 | 10.79 Mbytes
   Step          Temp          PotEng    
    400000   1764.4302     -38674.398    
    410000   1746.0321     -38721.851    
    420000   1751.2429     -38685.265    
    430000   1734.975      -38686.444    
    440000   1739.5987     -38729.245    
    450000   1735.93       -38760.938    
    460000   1745.9635     -38771.727    
    470000   1714.8126     -38720.981    
    480000   1753.6154     -38702.276    
    490000   1720.553      -38772.523    
    500000   1743.0761     -38730.949    
    510000   1732.9966     -38821.464    
    520000   1704.4493     -38798.892    
    530000   1743.2524     -38791.132    
    540000   1724.1998     -38789.234    
    550000   1726.7158     -38748.422    
    560000   1681.2124     -38819.237    
    570000   1711.1147     -38837.267    
    580000   1704.621      -38774.41     
    590000   1714.3157     -38833.079    
    600000   1675.7232     -38830.967    
Loop time of 1823.32 on 2 procs for 200000 steps with 10976 atoms

Performance: 9.477 ns/day, 2.532 hours/ns, 109.690 timesteps/s, 1.204 Matom-step/s
28.0% CPU use with 1 MPI tasks x 2 OpenMP threads

MPI task timing breakdown:
Section |  min time  |  avg time  |  max time  |%varavg| %total
---------------------------------------------------------------
Pair    | 1599.7     | 1599.7     | 1599.7     |   0.0 | 87.74
Neigh   | 123.84     | 123.84     | 123.84     |   0.0 |  6.79
Comm    | 14.783     | 14.783     | 14.783     |   0.0 |  0.81
Output  | 0.000583   | 0.000583   | 0.000583   |   0.0 |  0.00
Modify  | 76.192     | 76.192     | 76.192     |   0.0 |  4.18
Other   |            | 8.8        |            |       |  0.48

Nlocal:          10976 ave       10976 max       10976 min
Histogram: 1 0 0 0 0 0 0 0 0 0
Nghost:           9049 ave        9049 max        9049 min
Histogram: 1 0 0 0 0 0 0 0 0 0
Neighs:         336099 ave      336099 max      336099 min
Histogram: 1 0 0 0 0 0 0 0 0 0

Total # of neighbors = 336099
Ave neighs/atom = 30.621265
Neighbor list builds = 21503
Dangerous builds =unfiunfix		1
#Equilibrio a nueva T
print	  	"Equilibration starts"
Equilibration starts
fix		2 all npt temp ${newtemp2} ${newtemp2} 0.1 iso 0.0 0.0 1.0
fix		2 all npt temp 1700 ${newtemp2} 0.1 iso 0.0 0.0 1.0
fix		2 all npt temp 1700 1700 0.1 iso 0.0 0.0 1.0
run 		${nequil}
run 		100000
Last active /omp style is pair_style eam/fs/omp
Per MPI rank memory allocation (min/avg/max) = 10.8 | 10.8 | 10.8 Mbytes
   Step          Temp          PotEng    
    600000   1675.7232     -38830.967    
    610000   1689.082      -38803.416    
    620000   1699.2384     -38806.57     
    630000   1701.682      -38824.258    
    640000   1716.6435     -38794.394    
    650000   1694.7178     -38883.096    
    660000   1693.7308     -38850.312    
    670000   1717.3261     -38825.781    
    680000   1698.499      -38860.194    
    690000   1694.9231     -38874.017    
    700000   1712.7974     -38815.62     
Loop time of 910.994 on 2 procs for 100000 steps with 10976 atoms

Performance: 9.484 ns/day, 2.531 hours/ns, 109.770 timesteps/s, 1.205 Matom-step/s
27.7% CPU use with 1 MPI tasks x 2 OpenMP threads

MPI task timing breakdown:
Section |  min time  |  avg time  |  max time  |%varavg| %total
---------------------------------------------------------------
Pair    | 799.91     | 799.91     | 799.91     |   0.0 | 87.81
Neigh   | 61.38      | 61.38      | 61.38      |   0.0 |  6.74
Comm    | 7.378      | 7.378      | 7.378      |   0.0 |  0.81
Output  | 0.000295   | 0.000295   | 0.000295   |   0.0 |  0.00
Modify  | 37.966     | 37.966     | 37.966     |   0.0 |  4.17
Other   |            | 4.356      |            |       |  0.48

Nlocal:          10976 ave       10976 max       10976 min
Histogram: 1 0 0 0 0 0 0 0 0 0
Nghost:           9077 ave        9077 max        9077 min
Histogram: 1 0 0 0 0 0 0 0 0 0
Neighs:         336942 ave      336942 max      336942 min
Histogram: 1 0 0 0 0 0 0 0 0 0

Total # of neighbors = 336942
Ave neighs/atom = 30.698069
Neighbor list builds = 10661
Dangerous builds =unfiunfix		2
#Se colecta estadistica
print	  	"Stats collecting starts"
Stats collecting starts
fix		3 all npt temp ${newtemp2} ${newtemp2} 0.1 iso 0.0 0.0 1.0
fix		3 all npt temp 1700 ${newtemp2} 0.1 iso 0.0 0.0 1.0
fix		3 all npt temp 1700 1700 0.1 iso 0.0 0.0 1.0
dump            3 all custom ${ndump} dump.${newtemp2} id type x y z c_peratom fx fy fz
dump            3 all custom 5000 dump.${newtemp2} id type x y z c_peratom fx fy fz
dump            3 all custom 5000 dump.1700 id type x y z c_peratom fx fy fz
dump_modify   	3 element Au Pd
run		${nstat}
run		100000
Last active /omp style is pair_style eam/fs/omp
Per MPI rank memory allocation (min/avg/max) = 13.05 | 13.05 | 13.05 Mbytes
   Step          Temp          PotEng    
    700000   1712.7974     -38815.62     
    710000   1707.7766     -38820.722    
    720000   1708.4201     -38837.405    
    730000   1694.9501     -38845.802    
    740000   1707.0959     -38862.11     
    750000   1707.1753     -38834.159    
    760000   1699.8457     -38853.63     
    770000   1708.1584     -38849.832    
    780000   1706.516      -38860.704    
    790000   1702.9253     -38813.031    
    800000   1708.9444     -38789.861    
Loop time of 920.025 on 2 procs for 100000 steps with 10976 atoms

Performance: 9.391 ns/day, 2.556 hours/ns, 108.693 timesteps/s, 1.193 Matom-step/s
28.8% CPU use with 1 MPI tasks x 2 OpenMP threads

MPI task timing breakdown:
Section |  min time  |  avg time  |  max time  |%varavg| %total
---------------------------------------------------------------
Pair    | 804.02     | 804.02     | 804.02     |   0.0 | 87.39
Neigh   | 61.519     | 61.519     | 61.519     |   0.0 |  6.69
Comm    | 7.2976     | 7.2976     | 7.2976     |   0.0 |  0.79
Output  | 0.65816    | 0.65816    | 0.65816    |   0.0 |  0.07
Modify  | 42.144     | 42.144     | 42.144     |   0.0 |  4.58
Other   |            | 4.388      |            |       |  0.48

Nlocal:          10976 ave       10976 max       10976 min
Histogram: 1 0 0 0 0 0 0 0 0 0
Nghost:           9015 ave        9015 max        9015 min
Histogram: 1 0 0 0 0 0 0 0 0 0
Neighs:         335067 ave      335067 max      335067 min
Histogram: 1 0 0 0 0 0 0 0 0 0

Total # of neighbors = 335067
Ave neighs/atom = 30.527241
Neighbor list builds = 10647
Dangerous builds =unfiunfix		3
undump		3
#if "${newtemp2} > ${tempa}" then "jump SELF break"
next a
jump SELF loop
variable	a loop ${n1}
variable	a loop 11
variable	newtemp1 equal v_temp1-(v_a-1)*50
variable	newtemp2 equal v_newtemp1-50
#Rampa de T
print	  	"Temperature ramp starts"
Temperature ramp starts
fix             1 all npt temp ${newtemp1} ${newtemp2} 0.1 iso 0.0 0.0 1.0
fix             1 all npt temp 1700 ${newtemp2} 0.1 iso 0.0 0.0 1.0
fix             1 all npt temp 1700 1650 0.1 iso 0.0 0.0 1.0
run		${nramp}
run		200000
Last active /omp style is pair_style eam/fs/omp
Per MPI rank memory allocation (min/avg/max) = 10.8 | 10.8 | 10.8 Mbytes
   Step          Temp          PotEng    
    800000   1708.9444     -38789.861    
    810000   1711.4288     -38857.15     
    820000   1696.6232     -38870.509    
    830000   1686.557      -38854.203    
    840000   1702.4496     -38854.446    
    850000   1715.6372     -38874.135    
    860000   1685.7331     -38874.258    
    870000   1675.3866     -38894.758    
    880000   1678.6894     -38884.253    
    890000   1704.8134     -38880.531    
    900000   1665.3375     -38873.402    
    910000   1691.2739     -38906.2      
    920000   1684.6463     -38901.247    
    930000   1665.1101     -38908.111    
    940000   1669.2426     -38918.917    
    950000   1674.4012     -38942.384    
    960000   1655.3062     -38921.708    
    970000   1656.1595     -38954.841    
    980000   1664.8673     -38956.888    
    990000   1657.4044     -38939.57     
   1000000   1645.3916     -38960.279    
Loop time of 1827.15 on 2 procs for 200000 steps with 10976 atoms

Performance: 9.457 ns/day, 2.538 hours/ns, 109.460 timesteps/s, 1.201 Matom-step/s
28.3% CPU use with 1 MPI tasks x 2 OpenMP threads

MPI task timing breakdown:
Section |  min time  |  avg time  |  max time  |%varavg| %total
---------------------------------------------------------------
Pair    | 1601.5     | 1601.5     | 1601.5     |   0.0 | 87.65
Neigh   | 126.17     | 126.17     | 126.17     |   0.0 |  6.91
Comm    | 14.653     | 14.653     | 14.653     |   0.0 |  0.80
Output  | 0.000617   | 0.000617   | 0.000617   |   0.0 |  0.00
Modify  | 76.081     | 76.081     | 76.081     |   0.0 |  4.16
Other   |            | 8.743      |            |       |  0.48

Nlocal:          10976 ave       10976 max       10976 min
Histogram: 1 0 0 0 0 0 0 0 0 0
Nghost:           9090 ave        9090 max        9090 min
Histogram: 1 0 0 0 0 0 0 0 0 0
Neighs:         338841 ave      338841 max      338841 min
Histogram: 1 0 0 0 0 0 0 0 0 0

Total # of neighbors = 338841
Ave neighs/atom = 30.871082
Neighbor list builds = 21196
Dangerous builds unfixunfix		1
#Equilibrio a nueva T
print	  	"Equilibration starts"
Equilibration starts
fix		2 all npt temp ${newtemp2} ${newtemp2} 0.1 iso 0.0 0.0 1.0
fix		2 all npt temp 1650 ${newtemp2} 0.1 iso 0.0 0.0 1.0
fix		2 all npt temp 1650 1650 0.1 iso 0.0 0.0 1.0
run 		${nequil}
run 		100000
Last active /omp style is pair_style eam/fs/omp
Per MPI rank memory allocation (min/avg/max) = 10.8 | 10.8 | 10.8 Mbytes
   Step          Temp          PotEng    
   1000000   1645.3916     -38960.279    
   1010000   1664.5411     -38935.78     
   1020000   1660.7989     -38957.299    
   1030000   1655.8987     -38925.153    
   1040000   1634.5803     -38952.469    
   1050000   1643.0544     -38943.509    
   1060000   1646.7267     -38963.922    
   1070000   1653.6578     -38914.973    
   1080000   1646.1089     -38967.383    
   1090000   1659.7245     -38980.078    
   1100000   1653.2644     -38991.455    
Loop time of 980.62 on 2 procs for 100000 steps with 10976 atoms

Performance: 8.811 ns/day, 2.724 hours/ns, 101.976 timesteps/s, 1.119 Matom-step/s
28.0% CPU use with 1 MPI tasks x 2 OpenMP threads

MPI task timing breakdown:
Section |  min time  |  avg time  |  max time  |%varavg| %total
---------------------------------------------------------------
Pair    | 865.56     | 865.56     | 865.56     |   0.0 | 88.27
Neigh   | 63.662     | 63.662     | 63.662     |   0.0 |  6.49
Comm    | 7.8742     | 7.8742     | 7.8742     |   0.0 |  0.80
Output  | 0.00029    | 0.00029    | 0.00029    |   0.0 |  0.00
Modify  | 39.129     | 39.129     | 39.129     |   0.0 |  3.99
Other   |            | 4.393      |            |       |  0.45

Nlocal:          10976 ave       10976 max       10976 min
Histogram: 1 0 0 0 0 0 0 0 0 0
Nghost:           9099 ave        9099 max        9099 min
Histogram: 1 0 0 0 0 0 0 0 0 0
Neighs:         340109 ave      340109 max      340109 min
Histogram: 1 0 0 0 0 0 0 0 0 0

Total # of neighbors = 340109
Ave neighs/atom = 30.986607
Neighbor list builds = 10506
Dangerous builds =unfix		2
#Se colecta estadistica
print	  	"Stats collecting starts"
Stats collecting starts
fix		3 all npt temp ${newtemp2} ${newtemp2} 0.1 iso 0.0 0.0 1.0
fix		3 all npt temp 1650 ${newtemp2} 0.1 iso 0.0 0.0 1.0
fix		3 all npt temp 1650 1650 0.1 iso 0.0 0.0 1.0
dump            3 all custom ${ndump} dump.${newtemp2} id type x y z c_peratom fx fy fz
dump            3 all custom 5000 dump.${newtemp2} id type x y z c_peratom fx fy fz
dump            3 all custom 5000 dump.1650 id type x y z c_peratom fx fy fz
dump_modify   	3 element Au Pd
run		${nstat}
run		100000
Last active /omp style is pair_style eam/fs/omp
Per MPI rank memory allocation (min/avg/max) = 13.05 | 13.05 | 13.05 Mbytes
   Step          Temp          PotEng    
   1100000   1653.2644     -38991.455    
   1110000   1652.184      -38946.796    
   1120000   1654.5964     -38971.094    
   1130000   1655.5312     -38934.718    
   1140000   1646.143      -38925.717    
   1150000   1658.4        -38959.04     
   1160000   1655.8875     -38934.493    
   1170000   1652.9204     -38977.887    
   1180000   1659.1817     -38944.392    
   1190000   1657.0742     -38903.424    
   1200000   1664.5096     -38952.576    
Loop time of 978.423 on 2 procs for 100000 steps with 10976 atoms

Performance: 8.831 ns/day, 2.718 hours/ns, 102.205 timesteps/s, 1.122 Matom-step/s
29.5% CPU use with 1 MPI tasks x 2 OpenMP threads

MPI task timing breakdown:
Section |  min time  |  avg time  |  max time  |%varavg| %total
---------------------------------------------------------------
Pair    | 858.5      | 858.5      | 858.5      |   0.0 | 87.74
Neigh   | 64.031     | 64.031     | 64.031     |   0.0 |  6.54
Comm    | 7.7593     | 7.7593     | 7.7593     |   0.0 |  0.79
Output  | 0.66657    | 0.66657    | 0.66657    |   0.0 |  0.07
Modify  | 43.094     | 43.094     | 43.094     |   0.0 |  4.40
Other   |            | 4.374      |            |       |  0.45

Nlocal:          10976 ave       10976 max       10976 min
Histogram: 1 0 0 0 0 0 0 0 0 0
Nghost:           9069 ave        9069 max        9069 min
Histogram: 1 0 0 0 0 0 0 0 0 0
Neighs:         338220 ave      338220 max      338220 min
Histogram: 1 0 0 0 0 0 0 0 0 0

Total # of neighbors = 338220
Ave neighs/atom = 30.814504
Neighbor list builds = 10519
Dangerous builds = 0
unfiunfix		3
undump		3
#if "${newtemp2} > ${tempa}" then "jump SELF break"
next a
jump SELF loop
variable	a loop ${n1}
variable	a loop 11
variable	newtemp1 equal v_temp1-(v_a-1)*50
variable	newtemp2 equal v_newtemp1-50
#Rampa de T
print	  	"Temperature ramp starts"
Temperature ramp starts
fix             1 all npt temp ${newtemp1} ${newtemp2} 0.1 iso 0.0 0.0 1.0
fix             1 all npt temp 1650 ${newtemp2} 0.1 iso 0.0 0.0 1.0
fix             1 all npt temp 1650 1600 0.1 iso 0.0 0.0 1.0
run		${nramp}
run		200000
Last active /omp style is pair_style eam/fs/omp
Per MPI rank memory allocation (min/avg/max) = 10.8 | 10.8 | 10.8 Mbytes
   Step          Temp          PotEng    
   1200000   1664.5096     -38952.576    
   1210000   1636.7995     -38917.836    
   1220000   1607.6236     -38953.48     
   1230000   1624.9095     -39036.827    
   1240000   1641.8882     -38978.467    
   1250000   1647.46       -38947.479    
   1260000   1643.2217     -38967.569    
   1270000   1625.0377     -38984.692    
   1280000   1622.1298     -38928.892    
   1290000   1639.4102     -39021.157    
   1300000   1642.0461     -39021.141    
   1310000   1627.7487     -39025.268    
   1320000   1622.4329     -39018.742    
   1330000   1615.7419     -39002.331    
   1340000   1591.8117     -39019.36     
   1350000   1625.0986     -39036.395    
   1360000   1607.0145     -39013.156    
   1370000   1597.2479     -39035.475    
   1380000   1585.3413     -39052.946    
   1390000   1606.1981     -39063.529    
   1400000   1610.0486     -39048.012    
Loop time of 1912.45 on 2 procs for 200000 steps with 10976 atoms

Performance: 9.036 ns/day, 2.656 hours/ns, 104.578 timesteps/s, 1.148 Matom-step/s
28.5% CPU use with 1 MPI tasks x 2 OpenMP threads

MPI task timing breakdown:
Section |  min time  |  avg time  |  max time  |%varavg| %total
---------------------------------------------------------------
Pair    | 1684.3     | 1684.3     | 1684.3     |   0.0 | 88.07
Neigh   | 126.83     | 126.83     | 126.83     |   0.0 |  6.63
Comm    | 15.171     | 15.171     | 15.171     |   0.0 |  0.79
Output  | 0.000575   | 0.000575   | 0.000575   |   0.0 |  0.00
Modify  | 77.45      | 77.45      | 77.45      |   0.0 |  4.05
Other   |            | 8.659      |            |       |  0.45

Nlocal:          10976 ave       10976 max       10976 min
Histogram: 1 0 0 0 0 0 0 0 0 0
Nghost:           9172 ave        9172 max        9172 min
Histogram: 1 0 0 0 0 0 0 0 0 0
Neighs:         341157 ave      341157 max      341157 min
Histogram: 1 0 0 0 0 0 0 0 0 0

Total # of neighbors = 341157
Ave neighs/atom = 31.082088
Neighbor list builds = 20901
Dangerous builds =unfiunfix		1
#Equilibrio a nueva T
print	  	"Equilibration starts"
Equilibration starts
fix		2 all npt temp ${newtemp2} ${newtemp2} 0.1 iso 0.0 0.0 1.0
fix		2 all npt temp 1600 ${newtemp2} 0.1 iso 0.0 0.0 1.0
fix		2 all npt temp 1600 1600 0.1 iso 0.0 0.0 1.0
run 		${nequil}
run 		100000
Last active /omp style is pair_style eam/fs/omp
Per MPI rank memory allocation (min/avg/max) = 10.8 | 10.8 | 10.8 Mbytes
   Step          Temp          PotEng    
   1400000   1610.0486     -39048.012    
   1410000   1579.5447     -39077.43     
   1420000   1607.0356     -39064.204    
   1430000   1595.8495     -39078.311    
   1440000   1574.1698     -39065.807    
   1450000   1631.5637     -39060.314    
   1460000   1620.5077     -39113.062    
   1470000   1608.6642     -39113.998    
   1480000   1599.5468     -39047.596    
   1490000   1612.0376     -39090.32     
   1500000   1597.3741     -39080.655    
Loop time of 964.114 on 2 procs for 100000 steps with 10976 atoms

Performance: 8.962 ns/day, 2.678 hours/ns, 103.722 timesteps/s, 1.138 Matom-step/s
28.1% CPU use with 1 MPI tasks x 2 OpenMP threads

MPI task timing breakdown:
Section |  min time  |  avg time  |  max time  |%varavg| %total
---------------------------------------------------------------
Pair    | 850.31     | 850.31     | 850.31     |   0.0 | 88.20
Neigh   | 62.886     | 62.886     | 62.886     |   0.0 |  6.52
Comm    | 7.6156     | 7.6156     | 7.6156     |   0.0 |  0.79
Output  | 0.000289   | 0.000289   | 0.000289   |   0.0 |  0.00
Modify  | 38.928     | 38.928     | 38.928     |   0.0 |  4.04
Other   |            | 4.374      |            |       |  0.45

Nlocal:          10976 ave       10976 max       10976 min
Histogram: 1 0 0 0 0 0 0 0 0 0
Nghost:           9108 ave        9108 max        9108 min
Histogram: 1 0 0 0 0 0 0 0 0 0
Neighs:         341232 ave      341232 max      341232 min
Histogram: 1 0 0 0 0 0 0 0 0 0

Total # of neighbors = 341232
Ave neighs/atom = 31.088921
Neighbor list builds = 10361
Dangerous builds =unfix		2
#Se colecta estadistica
print	  	"Stats collecting starts"
Stats collecting starts
fix		3 all npt temp ${newtemp2} ${newtemp2} 0.1 iso 0.0 0.0 1.0
fix		3 all npt temp 1600 ${newtemp2} 0.1 iso 0.0 0.0 1.0
fix		3 all npt temp 1600 1600 0.1 iso 0.0 0.0 1.0
dump            3 all custom ${ndump} dump.${newtemp2} id type x y z c_peratom fx fy fz
dump            3 all custom 5000 dump.${newtemp2} id type x y z c_peratom fx fy fz
dump            3 all custom 5000 dump.1600 id type x y z c_peratom fx fy fz
dump_modify   	3 element Au Pd
run		${nstat}
run		100000
Last active /omp style is pair_style eam/fs/omp
Per MPI rank memory allocation (min/avg/max) = 13.05 | 13.05 | 13.05 Mbytes
   Step          Temp          PotEng    
   1500000   1597.3741     -39080.655    
   1510000   1603.9881     -39102.034    
   1520000   1605.1968     -39059.928    
   1530000   1616.8776     -39085.149    
   1540000   1589.4241     -39073.752    
   1550000   1594.4218     -39048.025    
   1560000   1596.9356     -39070.785    
   1570000   1614.5967     -39080.673    
   1580000   1601.5818     -39095.748    
   1590000   1611.135      -39059.854    
   1600000   1602.7049     -39105.35     
Loop time of 969.832 on 2 procs for 100000 steps with 10976 atoms

Performance: 8.909 ns/day, 2.694 hours/ns, 103.111 timesteps/s, 1.132 Matom-step/s
28.3% CPU use with 1 MPI tasks x 2 OpenMP threads

MPI task timing breakdown:
Section |  min time  |  avg time  |  max time  |%varavg| %total
---------------------------------------------------------------
Pair    | 851.29     | 851.29     | 851.29     |   0.0 | 87.78
Neigh   | 63.013     | 63.013     | 63.013     |   0.0 |  6.50
Comm    | 7.595      | 7.595      | 7.595      |   0.0 |  0.78
Output  | 0.65909    | 0.65909    | 0.65909    |   0.0 |  0.07
Modify  | 42.914     | 42.914     | 42.914     |   0.0 |  4.42
Other   |            | 4.358      |            |       |  0.45

Nlocal:          10976 ave       10976 max       10976 min
Histogram: 1 0 0 0 0 0 0 0 0 0
Nghost:           9153 ave        9153 max        9153 min
Histogram: 1 0 0 0 0 0 0 0 0 0
Neighs:         341745 ave      341745 max      341745 min
Histogram: 1 0 0 0 0 0 0 0 0 0

Total # of neighbors = 341745
Ave neighs/atom = 31.13566
Neighbor list builds = 10373
Dangerous builds = 0
unfiunfix		3
undump		3
#if "${newtemp2} > ${tempa}" then "jump SELF break"
next a
jump SELF loop
variable	a loop ${n1}
variable	a loop 11
variable	newtemp1 equal v_temp1-(v_a-1)*50
variable	newtemp2 equal v_newtemp1-50
#Rampa de T
print	  	"Temperature ramp starts"
Temperature ramp starts
fix             1 all npt temp ${newtemp1} ${newtemp2} 0.1 iso 0.0 0.0 1.0
fix             1 all npt temp 1600 ${newtemp2} 0.1 iso 0.0 0.0 1.0
fix             1 all npt temp 1600 1550 0.1 iso 0.0 0.0 1.0
run		${nramp}
run		200000
Last active /omp style is pair_style eam/fs/omp
Per MPI rank memory allocation (min/avg/max) = 10.8 | 10.8 | 10.8 Mbytes
   Step          Temp          PotEng    
   1600000   1602.7049     -39105.35     
   1610000   1568.8336     -39085.676    
   1620000   1585.1514     -39100.567    
   1630000   1608.0882     -39081.802    
   1640000   1581.7252     -39103.943    
   1650000   1599.6914     -39134.175    
   1660000   1571.7016     -39126.25     
   1670000   1581.2304     -39169.116    
   1680000   1573.8289     -39134.956    
   1690000   1595.0158     -39143.509    
   1700000   1570.6284     -39149.084    
   1710000   1572.4725     -39142.315    
   1720000   1573.1088     -39137.147    
   1730000   1545.1604     -39138.702    
   1740000   1559.7782     -39132.641    
   1750000   1576.3371     -39155.476    
   1760000   1574.7878     -39178.951    
   1770000   1560.3158     -39162.872    
   1780000   1534.926      -39164.129    
   1790000   1563.1306     -39182.14     
   1800000   1559.9295     -39169.873    
Loop time of 1884.21 on 2 procs for 200000 steps with 10976 atoms

Performance: 9.171 ns/day, 2.617 hours/ns, 106.145 timesteps/s, 1.165 Matom-step/s
28.5% CPU use with 1 MPI tasks x 2 OpenMP threads

MPI task timing breakdown:
Section |  min time  |  avg time  |  max time  |%varavg| %total
---------------------------------------------------------------
Pair    | 1659.5     | 1659.5     | 1659.5     |   0.0 | 88.07
Neigh   | 124.58     | 124.58     | 124.58     |   0.0 |  6.61
Comm    | 14.715     | 14.715     | 14.715     |   0.0 |  0.78
Output  | 0.000579   | 0.000579   | 0.000579   |   0.0 |  0.00
Modify  | 76.785     | 76.785     | 76.785     |   0.0 |  4.08
Other   |            | 8.657      |            |       |  0.46

Nlocal:          10976 ave       10976 max       10976 min
Histogram: 1 0 0 0 0 0 0 0 0 0
Nghost:           9195 ave        9195 max        9195 min
Histogram: 1 0 0 0 0 0 0 0 0 0
Neighs:         342432 ave      342432 max      342432 min
Histogram: 1 0 0 0 0 0 0 0 0 0

Total # of neighbors = 342432
Ave neighs/atom = 31.198251
Neighbor list builds = 20584
Dangerous builds =unfiunfix		1
#Equilibrio a nueva T
print	  	"Equilibration starts"
Equilibration starts
fix		2 all npt temp ${newtemp2} ${newtemp2} 0.1 iso 0.0 0.0 1.0
fix		2 all npt temp 1550 ${newtemp2} 0.1 iso 0.0 0.0 1.0
fix		2 all npt temp 1550 1550 0.1 iso 0.0 0.0 1.0
run 		${nequil}
run 		100000
Last active /omp style is pair_style eam/fs/omp
Per MPI rank memory allocation (min/avg/max) = 10.8 | 10.8 | 10.8 Mbytes
   Step          Temp          PotEng    
   1800000   1559.9295     -39169.873    
   1810000   1561.2908     -39211.504    
   1820000   1535.3599     -39235.621    
   1830000   1562.0508     -39173.545    
   1840000   1541.1534     -39135.307    
   1850000   1530.8995     -39218.069    
   1860000   1539.4717     -39209.691    
   1870000   1538.9149     -39197.705    
   1880000   1546.6347     -39190.333    
   1890000   1547.363      -39200.786    
   1900000   1553.6358     -39202.065    
Loop time of 953.484 on 2 procs for 100000 steps with 10976 atoms

Performance: 9.062 ns/day, 2.649 hours/ns, 104.879 timesteps/s, 1.151 Matom-step/s
28.8% CPU use with 1 MPI tasks x 2 OpenMP threads

MPI task timing breakdown:
Section |  min time  |  avg time  |  max time  |%varavg| %total
---------------------------------------------------------------
Pair    | 841.15     | 841.15     | 841.15     |   0.0 | 88.22
Neigh   | 61.985     | 61.985     | 61.985     |   0.0 |  6.50
Comm    | 7.4841     | 7.4841     | 7.4841     |   0.0 |  0.78
Output  | 0.000292   | 0.000292   | 0.000292   |   0.0 |  0.00
Modify  | 38.548     | 38.548     | 38.548     |   0.0 |  4.04
Other   |            | 4.313      |            |       |  0.45

Nlocal:          10976 ave       10976 max       10976 min
Histogram: 1 0 0 0 0 0 0 0 0 0
Nghost:           9123 ave        9123 max        9123 min
Histogram: 1 0 0 0 0 0 0 0 0 0
Neighs:         343621 ave      343621 max      343621 min
Histogram: 1 0 0 0 0 0 0 0 0 0

Total # of neighbors = 343621
Ave neighs/atom = 31.306578
Neighbor list builds = 10217
Dangerous builds =unfix		2
#Se colecta estadistica
print	  	"Stats collecting starts"
Stats collecting starts
fix		3 all npt temp ${newtemp2} ${newtemp2} 0.1 iso 0.0 0.0 1.0
fix		3 all npt temp 1550 ${newtemp2} 0.1 iso 0.0 0.0 1.0
fix		3 all npt temp 1550 1550 0.1 iso 0.0 0.0 1.0
dump            3 all custom ${ndump} dump.${newtemp2} id type x y z c_peratom fx fy fz
dump            3 all custom 5000 dump.${newtemp2} id type x y z c_peratom fx fy fz
dump            3 all custom 5000 dump.1550 id type x y z c_peratom fx fy fz
dump_modify   	3 element Au Pd
run		${nstat}
run		100000
Last active /omp style is pair_style eam/fs/omp
Per MPI rank memory allocation (min/avg/max) = 13.06 | 13.06 | 13.06 Mbytes
   Step          Temp          PotEng    
   1900000   1553.6358     -39202.065    
   1910000   1570.5977     -39216.874    
   1920000   1548.1185     -39242.273    
   1930000   1550.5776     -39160.371    
   1940000   1535.6405     -39198.496    
   1950000   1532.2438     -39205.404    
   1960000   1545.5689     -39202.662    
   1970000   1549.5009     -39162.136    
   1980000   1553.0522     -39182.374    
   1990000   1554.5907     -39226.189    
   2000000   1569.8687     -39154.653    
Loop time of 963.876 on 2 procs for 100000 steps with 10976 atoms

Performance: 8.964 ns/day, 2.677 hours/ns, 103.748 timesteps/s, 1.139 Matom-step/s
29.0% CPU use with 1 MPI tasks x 2 OpenMP threads

MPI task timing breakdown:
Section |  min time  |  avg time  |  max time  |%varavg| %total
---------------------------------------------------------------
Pair    | 846.48     | 846.48     | 846.48     |   0.0 | 87.82
Neigh   | 62.166     | 62.166     | 62.166     |   0.0 |  6.45
Comm    | 7.4984     | 7.4984     | 7.4984     |   0.0 |  0.78
Output  | 0.66812    | 0.66812    | 0.66812    |   0.0 |  0.07
Modify  | 42.724     | 42.724     | 42.724     |   0.0 |  4.43
Other   |            | 4.338      |            |       |  0.45

Nlocal:          10976 ave       10976 max       10976 min
Histogram: 1 0 0 0 0 0 0 0 0 0
Nghost:           9137 ave        9137 max        9137 min
Histogram: 1 0 0 0 0 0 0 0 0 0
Neighs:         341820 ave      341820 max      341820 min
Histogram: 1 0 0 0 0 0 0 0 0 0

Total # of neighbors = 341820
Ave neighs/atom = 31.142493
Neighbor list builds = 10218
Dangerous builds = 0
unfiunfix		3
undump		3
#if "${newtemp2} > ${tempa}" then "jump SELF break"
next a
jump SELF loop
variable	a loop ${n1}
variable	a loop 11
variable	newtemp1 equal v_temp1-(v_a-1)*50
variable	newtemp2 equal v_newtemp1-50
#Rampa de T
print	  	"Temperature ramp starts"
Temperature ramp starts
fix             1 all npt temp ${newtemp1} ${newtemp2} 0.1 iso 0.0 0.0 1.0
fix             1 all npt temp 1550 ${newtemp2} 0.1 iso 0.0 0.0 1.0
fix             1 all npt temp 1550 1500 0.1 iso 0.0 0.0 1.0
run		${nramp}
run		200000
Last active /omp style is pair_style eam/fs/omp
Per MPI rank memory allocation (min/avg/max) = 10.8 | 10.8 | 10.8 Mbytes
   Step          Temp          PotEng    
   2000000   1569.8687     -39154.653    
   2010000   1552.9489     -39200.901    
   2020000   1537.0538     -39209.499    
   2030000   1549.1066     -39223.033    
   2040000   1540.4806     -39250.99     
   2050000   1523.3162     -39232.375    
   2060000   1547.9292     -39282.378    
   2070000   1535.0165     -39249.694    
   2080000   1518.1926     -39285.038    
   2090000   1528.4428     -39224.368    
   2100000   1526.96       -39245.306    
   2110000   1524.2193     -39324.165    
   2120000   1508.1322     -39266.101    
   2130000   1527.4731     -39257.238    
   2140000   1505.6458     -39321.304    
   2150000   1530.0265     -39281.063    
   2160000   1538.4427     -39324.808    
   2170000   1512.2646     -39314.345    
   2180000   1494.8939     -39320.392    
   2190000   1513.4235     -39317.699    
   2200000   1496.4656     -39303.562    
Loop time of 1879.83 on 2 procs for 200000 steps with 10976 atoms

Performance: 9.192 ns/day, 2.611 hours/ns, 106.393 timesteps/s, 1.168 Matom-step/s
28.2% CPU use with 1 MPI tasks x 2 OpenMP threads

MPI task timing breakdown:
Section |  min time  |  avg time  |  max time  |%varavg| %total
---------------------------------------------------------------
Pair    | 1656.6     | 1656.6     | 1656.6     |   0.0 | 88.12
Neigh   | 123.08     | 123.08     | 123.08     |   0.0 |  6.55
Comm    | 14.643     | 14.643     | 14.643     |   0.0 |  0.78
Output  | 0.00058    | 0.00058    | 0.00058    |   0.0 |  0.00
Modify  | 76.878     | 76.878     | 76.878     |   0.0 |  4.09
Other   |            | 8.667      |            |       |  0.46

Nlocal:          10976 ave       10976 max       10976 min
Histogram: 1 0 0 0 0 0 0 0 0 0
Nghost:           9190 ave        9190 max        9190 min
Histogram: 1 0 0 0 0 0 0 0 0 0
Neighs:         344976 ave      344976 max      344976 min
Histogram: 1 0 0 0 0 0 0 0 0 0

Total # of neighbors = 344976
Ave neighs/atom = 31.430029
Neighbor list builds = 20272
Dangerous builds =unfiunfix		1
#Equilibrio a nueva T
print	  	"Equilibration starts"
Equilibration starts
fix		2 all npt temp ${newtemp2} ${newtemp2} 0.1 iso 0.0 0.0 1.0
fix		2 all npt temp 1500 ${newtemp2} 0.1 iso 0.0 0.0 1.0
fix		2 all npt temp 1500 1500 0.1 iso 0.0 0.0 1.0
run 		${nequil}
run 		100000
Last active /omp style is pair_style eam/fs/omp
Per MPI rank memory allocation (min/avg/max) = 10.8 | 10.8 | 10.8 Mbytes
   Step          Temp          PotEng    
   2200000   1496.4656     -39303.562    
   2210000   1490.1571     -39341.532    
   2220000   1476.4793     -39315.136    
   2230000   1490.3306     -39350.752    
   2240000   1493.2897     -39306.697    
   2250000   1510.5031     -39357.919    
   2260000   1513.915      -39341.017    
   2270000   1505.6835     -39330.582    
   2280000   1488.3798     -39334.316    
   2290000   1485.6036     -39322.981    
   2300000   1519.6652     -39324.032    
Loop time of 944.265 on 2 procs for 100000 steps with 10976 atoms

Performance: 9.150 ns/day, 2.623 hours/ns, 105.902 timesteps/s, 1.162 Matom-step/s
28.9% CPU use with 1 MPI tasks x 2 OpenMP threads

MPI task timing breakdown:
Section |  min time  |  avg time  |  max time  |%varavg| %total
---------------------------------------------------------------
Pair    | 832.72     | 832.72     | 832.72     |   0.0 | 88.19
Neigh   | 61.176     | 61.176     | 61.176     |   0.0 |  6.48
Comm    | 7.4802     | 7.4802     | 7.4802     |   0.0 |  0.79
Output  | 0.000294   | 0.000294   | 0.000294   |   0.0 |  0.00
Modify  | 38.551     | 38.551     | 38.551     |   0.0 |  4.08
Other   |            | 4.336      |            |       |  0.46

Nlocal:          10976 ave       10976 max       10976 min
Histogram: 1 0 0 0 0 0 0 0 0 0
Nghost:           9213 ave        9213 max        9213 min
Histogram: 1 0 0 0 0 0 0 0 0 0
Neighs:         345743 ave      345743 max      345743 min
Histogram: 1 0 0 0 0 0 0 0 0 0

Total # of neighbors = 345743
Ave neighs/atom = 31.499909
Neighbor list builds = 10070
Dangerous builds =unfiunfix		2
#Se colecta estadistica
print	  	"Stats collecting starts"
Stats collecting starts
fix		3 all npt temp ${newtemp2} ${newtemp2} 0.1 iso 0.0 0.0 1.0
fix		3 all npt temp 1500 ${newtemp2} 0.1 iso 0.0 0.0 1.0
fix		3 all npt temp 1500 1500 0.1 iso 0.0 0.0 1.0
dump            3 all custom ${ndump} dump.${newtemp2} id type x y z c_peratom fx fy fz
dump            3 all custom 5000 dump.${newtemp2} id type x y z c_peratom fx fy fz
dump            3 all custom 5000 dump.1500 id type x y z c_peratom fx fy fz
dump_modify   	3 element Au Pd
run		${nstat}
run		100000
Last active /omp style is pair_style eam/fs/omp
Per MPI rank memory allocation (min/avg/max) = 13.06 | 13.06 | 13.06 Mbytes
   Step          Temp          PotEng    
   2300000   1519.6652     -39324.032    
   2310000   1481.9035     -39308.074    
   2320000   1496.47       -39352.988    
   2330000   1501.274      -39354.256    
   2340000   1514.6806     -39349.418    
   2350000   1506.2796     -39312.329    
   2360000   1496.1955     -39332.496    
   2370000   1482.8962     -39333.8      
   2380000   1501.4291     -39313.4      
   2390000   1511.0454     -39304.695    
   2400000   1513.6713     -39338.539    
Loop time of 950.174 on 2 procs for 100000 steps with 10976 atoms

Performance: 9.093 ns/day, 2.639 hours/ns, 105.244 timesteps/s, 1.155 Matom-step/s
28.8% CPU use with 1 MPI tasks x 2 OpenMP threads

MPI task timing breakdown:
Section |  min time  |  avg time  |  max time  |%varavg| %total
---------------------------------------------------------------
Pair    | 834.13     | 834.13     | 834.13     |   0.0 | 87.79
Neigh   | 61.029     | 61.029     | 61.029     |   0.0 |  6.42
Comm    | 7.3444     | 7.3444     | 7.3444     |   0.0 |  0.77
Output  | 0.64664    | 0.64664    | 0.64664    |   0.0 |  0.07
Modify  | 42.691     | 42.691     | 42.691     |   0.0 |  4.49
Other   |            | 4.335      |            |       |  0.46

Nlocal:          10976 ave       10976 max       10976 min
Histogram: 1 0 0 0 0 0 0 0 0 0
Nghost:           9197 ave        9197 max        9197 min
Histogram: 1 0 0 0 0 0 0 0 0 0
Neighs:         346949 ave      346949 max      346949 min
Histogram: 1 0 0 0 0 0 0 0 0 0

Total # of neighbors = 346949
Ave neighs/atom = 31.609785
Neighbor list builds = 10050
Dangerous builds =unfiunfix		3
undump		3
#if "${newtemp2} > ${tempa}" then "jump SELF break"
next a
jump SELF loop
variable	a loop ${n1}
variable	a loop 11
variable	newtemp1 equal v_temp1-(v_a-1)*50
variable	newtemp2 equal v_newtemp1-50
#Rampa de T
print	  	"Temperature ramp starts"
Temperature ramp starts
fix             1 all npt temp ${newtemp1} ${newtemp2} 0.1 iso 0.0 0.0 1.0
fix             1 all npt temp 1500 ${newtemp2} 0.1 iso 0.0 0.0 1.0
fix             1 all npt temp 1500 1450 0.1 iso 0.0 0.0 1.0
run		${nramp}
run		200000
Last active /omp style is pair_style eam/fs/omp
Per MPI rank memory allocation (min/avg/max) = 10.8 | 10.8 | 10.8 Mbytes
   Step          Temp          PotEng    
   2400000   1513.6713     -39338.539    
   2410000   1499.6511     -39355.636    
   2420000   1509.8351     -39360.448    
   2430000   1479.5598     -39355.604    
   2440000   1477.1167     -39349.806    
   2450000   1487.7082     -39354.564    
   2460000   1484.2713     -39381.797    
   2470000   1466.0484     -39385.328    
   2480000   1478.9732     -39402.122    
   2490000   1485.3884     -39379.315    
   2500000   1477.461      -39360.914    
   2510000   1452.912      -39422.21     
   2520000   1472.0102     -39354.96     
   2530000   1468.8608     -39441.71     
   2540000   1457.5225     -39426.91     
   2550000   1456.8279     -39389.008    
   2560000   1467.2151     -39406.947    
   2570000   1454.702      -39393.752    
   2580000   1447.3764     -39440.609    
   2590000   1461.4759     -39414.785    
   2600000   1449.1626     -39481.472    
Loop time of 2045.97 on 2 procs for 200000 steps with 10976 atoms

Performance: 8.446 ns/day, 2.842 hours/ns, 97.753 timesteps/s, 1.073 Matom-step/s
29.8% CPU use with 1 MPI tasks x 2 OpenMP threads

MPI task timing breakdown:
Section |  min time  |  avg time  |  max time  |%varavg| %total
---------------------------------------------------------------
Pair    | 1810.5     | 1810.5     | 1810.5     |   0.0 | 88.49
Neigh   | 125.93     | 125.93     | 125.93     |   0.0 |  6.15
Comm    | 16.115     | 16.115     | 16.115     |   0.0 |  0.79
Output  | 0.000727   | 0.000727   | 0.000727   |   0.0 |  0.00
Modify  | 83.96      | 83.96      | 83.96      |   0.0 |  4.10
Other   |            | 9.464      |            |       |  0.46

Nlocal:          10976 ave       10976 max       10976 min
Histogram: 1 0 0 0 0 0 0 0 0 0
Nghost:           9216 ave        9216 max        9216 min
Histogram: 1 0 0 0 0 0 0 0 0 0
Neighs:         348485 ave      348485 max      348485 min
Histogram: 1 0 0 0 0 0 0 0 0 0

Total # of neighbors = 348485
Ave neighs/atom = 31.749727
Neighbor list builds = 19934
Dangerous builds =unfiunfix		1
#Equilibrio a nueva T
print	  	"Equilibration starts"
Equilibration starts
fix		2 all npt temp ${newtemp2} ${newtemp2} 0.1 iso 0.0 0.0 1.0
fix		2 all npt temp 1450 ${newtemp2} 0.1 iso 0.0 0.0 1.0
fix		2 all npt temp 1450 1450 0.1 iso 0.0 0.0 1.0
run 		${nequil}
run 		100000
Last active /omp style is pair_style eam/fs/omp
Per MPI rank memory allocation (min/avg/max) = 10.8 | 10.8 | 10.8 Mbytes
   Step          Temp          PotEng    
   2600000   1449.1626     -39481.472    
   2610000   1438.0477     -39448.247    
   2620000   1458.3904     -39457.077    
   2630000   1450.7481     -39453.817    
   2640000   1466.3835     -39451.931    
   2650000   1453.1132     -39469.527    
   2660000   1441.1289     -39485.052    
   2670000   1451.1828     -39436.19     
   2680000   1451.7756     -39447.901    
   2690000   1465.8795     -39500.251    
   2700000   1441.1179     -39428.844    
Loop time of 3102.2 on 2 procs for 100000 steps with 10976 atoms

Performance: 2.785 ns/day, 8.617 hours/ns, 32.235 timesteps/s, 353.813 katom-step/s
67.2% CPU use with 1 MPI tasks x 2 OpenMP threads

MPI task timing breakdown:
Section |  min time  |  avg time  |  max time  |%varavg| %total
---------------------------------------------------------------
Pair    | 2809.9     | 2809.9     | 2809.9     |   0.0 | 90.58
Neigh   | 106.37     | 106.37     | 106.37     |   0.0 |  3.43
Comm    | 22.577     | 22.577     | 22.577     |   0.0 |  0.73
Output  | 0.000458   | 0.000458   | 0.000458   |   0.0 |  0.00
Modify  | 151.05     | 151.05     | 151.05     |   0.0 |  4.87
Other   |            | 12.31      |            |       |  0.40

Nlocal:          10976 ave       10976 max       10976 min
Histogram: 1 0 0 0 0 0 0 0 0 0
Nghost:           9218 ave        9218 max        9218 min
Histogram: 1 0 0 0 0 0 0 0 0 0
Neighs:         347664 ave      347664 max      347664 min
Histogram: 1 0 0 0 0 0 0 0 0 0

Total # of neighbors = 347664
Ave neighs/atom = 31.674927
Neighbor list builds = 9888
Dangerous builds = unfunfix		2
#Se colecta estadistica
print	  	"Stats collecting starts"
Stats collecting starts
fix		3 all npt temp ${newtemp2} ${newtemp2} 0.1 iso 0.0 0.0 1.0
fix		3 all npt temp 1450 ${newtemp2} 0.1 iso 0.0 0.0 1.0
fix		3 all npt temp 1450 1450 0.1 iso 0.0 0.0 1.0
dump            3 all custom ${ndump} dump.${newtemp2} id type x y z c_peratom fx fy fz
dump            3 all custom 5000 dump.${newtemp2} id type x y z c_peratom fx fy fz
dump            3 all custom 5000 dump.1450 id type x y z c_peratom fx fy fz
dump_modify   	3 element Au Pd
run		${nstat}
run		100000
Last active /omp style is pair_style eam/fs/omp
Per MPI rank memory allocation (min/avg/max) = 13.06 | 13.06 | 13.06 Mbytes
   Step          Temp          PotEng    
   2700000   1441.1179     -39428.844    
   2710000   1433.9212     -39467.962    
   2720000   1463.0277     -39446.928    
   2730000   1473.6052     -39462.781    
   2740000   1447.461      -39410.122    
   2750000   1445.6647     -39468.314    
   2760000   1443.6812     -39440.72     
   2770000   1443.0031     -39475.101    
   2780000   1444.9239     -39460.536    
   2790000   1442.0133     -39462.257    
   2800000   1440.9089     -39439.396    
Loop time of 5735.17 on 2 procs for 100000 steps with 10976 atoms

Performance: 1.506 ns/day, 15.931 hours/ns, 17.436 timesteps/s, 191.381 katom-step/s
83.8% CPU use with 1 MPI tasks x 2 OpenMP threads

MPI task timing breakdown:
Section |  min time  |  avg time  |  max time  |%varavg| %total
---------------------------------------------------------------
Pair    | 5188.5     | 5188.5     | 5188.5     |   0.0 | 90.47
Neigh   | 135.97     | 135.97     | 135.97     |   0.0 |  2.37
Comm    | 38.609     | 38.609     | 38.609     |   0.0 |  0.67
Output  | 1.4636     | 1.4636     | 1.4636     |   0.0 |  0.03
Modify  | 348.11     | 348.11     | 348.11     |   0.0 |  6.07
Other   |            | 22.5       |            |       |  0.39

Nlocal:          10976 ave       10976 max       10976 min
Histogram: 1 0 0 0 0 0 0 0 0 0
Nghost:           9237 ave        9237 max        9237 min
Histogram: 1 0 0 0 0 0 0 0 0 0
Neighs:         347821 ave      347821 max      347821 min
Histogram: 1 0 0 0 0 0 0 0 0 0

Total # of neighbors = 347821
Ave neighs/atom = 31.689231
Neighbor list builds = 9913
Dangerous builds = unfunfix		3
undump		3
#if "${newtemp2} > ${tempa}" then "jump SELF break"
next a
jump SELF loop
variable	a loop ${n1}
variable	a loop 11
variable	newtemp1 equal v_temp1-(v_a-1)*50
variable	newtemp2 equal v_newtemp1-50
#Rampa de T
print	  	"Temperature ramp starts"
Temperature ramp starts
fix             1 all npt temp ${newtemp1} ${newtemp2} 0.1 iso 0.0 0.0 1.0
fix             1 all npt temp 1450 ${newtemp2} 0.1 iso 0.0 0.0 1.0
fix             1 all npt temp 1450 1400 0.1 iso 0.0 0.0 1.0
run		${nramp}
run		200000
Last active /omp style is pair_style eam/fs/omp
Per MPI rank memory allocation (min/avg/max) = 10.8 | 10.8 | 10.8 Mbytes
   Step          Temp          PotEng    
   2800000   1440.9089     -39439.396    
   2810000   1444.4997     -39464.321    
   2820000   1436.6029     -39470.586    
   2830000   1430.7119     -39492.64     
   2840000   1438.2355     -39465.464    
   2850000   1443.1477     -39437.082    
   2860000   1435.4063     -39499.354    
   2870000   1462.3358     -39492.295    
   2880000   1446.5785     -39534.743    
   2890000   1417.6022     -39497.309    
   2900000   1422.7912     -39493.414    
   2910000   1411.8183     -39501.875    
   2920000   1418.7643     -39518.009    
   2930000   1416.8435     -39561.488    
   2940000   1413.9383     -39571.604    
   2950000   1413.7597     -39534.903    
   2960000   1411.4835     -39524.617    
   2970000   1397.8438     -39548.061    
   2980000   1403.4882     -39587.774    
   2990000   1395.9397     -39536.431    
   3000000   1402.7546     -39525.668    
Loop time of 2702.31 on 2 procs for 200000 steps with 10976 atoms

Performance: 6.395 ns/day, 3.753 hours/ns, 74.011 timesteps/s, 812.341 katom-step/s
40.3% CPU use with 1 MPI tasks x 2 OpenMP threads

MPI task timing breakdown:
Section |  min time  |  avg time  |  max time  |%varavg| %total
---------------------------------------------------------------
Pair    | 2412       | 2412       | 2412       |   0.0 | 89.26
Neigh   | 138.51     | 138.51     | 138.51     |   0.0 |  5.13
Comm    | 21.364     | 21.364     | 21.364     |   0.0 |  0.79
Output  | 0.000664   | 0.000664   | 0.000664   |   0.0 |  0.00
Modify  | 118.45     | 118.45     | 118.45     |   0.0 |  4.38
Other   |            | 11.98      |            |       |  0.44

Nlocal:          10976 ave       10976 max       10976 min
Histogram: 1 0 0 0 0 0 0 0 0 0
Nghost:           9205 ave        9205 max        9205 min
Histogram: 1 0 0 0 0 0 0 0 0 0
Neighs:         349638 ave      349638 max      349638 min
Histogram: 1 0 0 0 0 0 0 0 0 0

Total # of neighbors = 349638
Ave neighs/atom = 31.854774
Neighbor list builds = 19634
Dangerous builds = unfunfix		1
#Equilibrio a nueva T
print	  	"Equilibration starts"
Equilibration starts
fix		2 all npt temp ${newtemp2} ${newtemp2} 0.1 iso 0.0 0.0 1.0
fix		2 all npt temp 1400 ${newtemp2} 0.1 iso 0.0 0.0 1.0
fix		2 all npt temp 1400 1400 0.1 iso 0.0 0.0 1.0
run 		${nequil}
run 		100000
Last active /omp style is pair_style eam/fs/omp
Per MPI rank memory allocation (min/avg/max) = 10.8 | 10.8 | 10.8 Mbytes
   Step          Temp          PotEng    
   3000000   1402.7546     -39525.668    
   3010000   1401.0115     -39572.799    
   3020000   1407.7852     -39577.771    
   3030000   1412.0072     -39536.89     
   3040000   1416.0339     -39556.439    
   3050000   1391.8412     -39557.249    
   3060000   1399.2177     -39546.165    
   3070000   1394.5579     -39605.961    
   3080000   1417.6153     -39573.07     
   3090000   1389.2902     -39545.808    
   3100000   1392.7965     -39576.906    
Loop time of 1880.8 on 2 procs for 100000 steps with 10976 atoms

Performance: 4.594 ns/day, 5.224 hours/ns, 53.169 timesteps/s, 583.582 katom-step/s
36.3% CPU use with 1 MPI tasks x 2 OpenMP threads

MPI task timing breakdown:
Section |  min time  |  avg time  |  max time  |%varavg| %total
---------------------------------------------------------------
Pair    | 1679.6     | 1679.6     | 1679.6     |   0.0 | 89.30
Neigh   | 74.911     | 74.911     | 74.911     |   0.0 |  3.98
Comm    | 13.959     | 13.959     | 13.959     |   0.0 |  0.74
Output  | 0.000377   | 0.000377   | 0.000377   |   0.0 |  0.00
Modify  | 104.01     | 104.01     | 104.01     |   0.0 |  5.53
Other   |            | 8.328      |            |       |  0.44

Nlocal:          10976 ave       10976 max       10976 min
Histogram: 1 0 0 0 0 0 0 0 0 0
Nghost:           9268 ave        9268 max        9268 min
Histogram: 1 0 0 0 0 0 0 0 0 0
Neighs:         350821 ave      350821 max      350821 min
Histogram: 1 0 0 0 0 0 0 0 0 0

Total # of neighbors = 350821
Ave neighs/atom = 31.962555
Neighbor list builds = 9738
Dangerous builds = 0ununfix		2
#Se colecta estadistica
print	  	"Stats collecting starts"
Stats collecting starts
fix		3 all npt temp ${newtemp2} ${newtemp2} 0.1 iso 0.0 0.0 1.0
fix		3 all npt temp 1400 ${newtemp2} 0.1 iso 0.0 0.0 1.0
fix		3 all npt temp 1400 1400 0.1 iso 0.0 0.0 1.0
dump            3 all custom ${ndump} dump.${newtemp2} id type x y z c_peratom fx fy fz
dump            3 all custom 5000 dump.${newtemp2} id type x y z c_peratom fx fy fz
dump            3 all custom 5000 dump.1400 id type x y z c_peratom fx fy fz
dump_modify   	3 element Au Pd
run		${nstat}
run		100000
Last active /omp style is pair_style eam/fs/omp
Per MPI rank memory allocation (min/avg/max) = 13.06 | 13.06 | 13.06 Mbytes
   Step          Temp          PotEng    
   3100000   1392.7965     -39576.906    
   3110000   1395.3047     -39536.989    
   3120000   1399.4478     -39554.028    
   3130000   1408.0365     -39580.052    
   3140000   1395.4046     -39573.784    
   3150000   1403.089      -39556.284    
   3160000   1396.1092     -39534.652    
   3170000   1395.2831     -39594.858    
   3180000   1394.3764     -39567.951    
   3190000   1409.2564     -39580.486    
   3200000   1413.6503     -39593.794    
Loop time of 1530.68 on 2 procs for 100000 steps with 10976 atoms

Performance: 5.645 ns/day, 4.252 hours/ns, 65.330 timesteps/s, 717.065 katom-step/s
30.4% CPU use with 1 MPI tasks x 2 OpenMP threads

MPI task timing breakdown:
Section |  min time  |  avg time  |  max time  |%varavg| %total
---------------------------------------------------------------
Pair    | 1376.7     | 1376.7     | 1376.7     |   0.0 | 89.94
Neigh   | 67.954     | 67.954     | 67.954     |   0.0 |  4.44
Comm    | 11.582     | 11.582     | 11.582     |   0.0 |  0.76
Output  | 0.72491    | 0.72491    | 0.72491    |   0.0 |  0.05
Modify  | 67.202     | 67.202     | 67.202     |   0.0 |  4.39
Other   |            | 6.531      |            |       |  0.43

Nlocal:          10976 ave       10976 max       10976 min
Histogram: 1 0 0 0 0 0 0 0 0 0
Nghost:           9228 ave        9228 max        9228 min
Histogram: 1 0 0 0 0 0 0 0 0 0
Neighs:         350307 ave      350307 max      350307 min
Histogram: 1 0 0 0 0 0 0 0 0 0

Total # of neighbors = 350307
Ave neighs/atom = 31.915725
Neighbor list builds = 9737
Dangerous builds = 0ununfix		3
undump		3
#if "${newtemp2} > ${tempa}" then "jump SELF break"
next a
jump SELF loop
variable	a loop ${n1}
variable	a loop 11
variable	newtemp1 equal v_temp1-(v_a-1)*50
variable	newtemp2 equal v_newtemp1-50
#Rampa de T
print	  	"Temperature ramp starts"
Temperature ramp starts
fix             1 all npt temp ${newtemp1} ${newtemp2} 0.1 iso 0.0 0.0 1.0
fix             1 all npt temp 1400 ${newtemp2} 0.1 iso 0.0 0.0 1.0
fix             1 all npt temp 1400 1350 0.1 iso 0.0 0.0 1.0
run		${nramp}
run		200000
Last active /omp style is pair_style eam/fs/omp
Per MPI rank memory allocation (min/avg/max) = 10.8 | 10.8 | 10.8 Mbytes
   Step          Temp          PotEng    
   3200000   1413.6503     -39593.794    
   3210000   1380.4721     -39583.777    
   3220000   1403.2753     -39582.627    
   3230000   1391.8822     -39584.268    
   3240000   1391.4827     -39593.45     
   3250000   1393.6022     -39622.829    
   3260000   1377.1541     -39626.529    
   3270000   1378.9964     -39605.519    
   3280000   1375.3317     -39613.088    
   3290000   1381.8158     -39643.249    
   3300000   1372.8843     -39629.652    
   3310000   1367.3849     -39657.286    
   3320000   1374.7653     -39620.684    
   3330000   1364.0174     -39635.539    
   3340000   1356.2065     -39681.932    
   3350000   1362.4428     -39644.094    
   3360000   1367.2988     -39653.259    
   3370000   1369.2489     -39703.317    
   3380000   1375.5692     -39687.061    
   3390000   1340.0713     -39700.924    
   3400000   1364.9111     -39682.899    
Loop time of 1973.77 on 2 procs for 200000 steps with 10976 atoms

Performance: 8.755 ns/day, 2.741 hours/ns, 101.329 timesteps/s, 1.112 Matom-step/s
11.5% CPU use with 1 MPI tasks x 2 OpenMP threads

MPI task timing breakdown:
Section |  min time  |  avg time  |  max time  |%varavg| %total
---------------------------------------------------------------
Pair    | 1753.7     | 1753.7     | 1753.7     |   0.0 | 88.85
Neigh   | 117.58     | 117.58     | 117.58     |   0.0 |  5.96
Comm    | 15.141     | 15.141     | 15.141     |   0.0 |  0.77
Output  | 0.000585   | 0.000585   | 0.000585   |   0.0 |  0.00
Modify  | 78.638     | 78.638     | 78.638     |   0.0 |  3.98
Other   |            | 8.693      |            |       |  0.44

Nlocal:          10976 ave       10976 max       10976 min
Histogram: 1 0 0 0 0 0 0 0 0 0
Nghost:           9207 ave        9207 max        9207 min
Histogram: 1 0 0 0 0 0 0 0 0 0
Neighs:         352405 ave      352405 max      352405 min
Histogram: 1 0 0 0 0 0 0 0 0 0

Total # of neighbors = 352405
Ave neighs/atom = 32.10687
Neighbor list builds = 19323
Dangerous builds = 0ununfix		1
#Equilibrio a nueva T
print	  	"Equilibration starts"
Equilibration starts
fix		2 all npt temp ${newtemp2} ${newtemp2} 0.1 iso 0.0 0.0 1.0
fix		2 all npt temp 1350 ${newtemp2} 0.1 iso 0.0 0.0 1.0
fix		2 all npt temp 1350 1350 0.1 iso 0.0 0.0 1.0
run 		${nequil}
run 		100000
Last active /omp style is pair_style eam/fs/omp
Per MPI rank memory allocation (min/avg/max) = 10.8 | 10.8 | 10.8 Mbytes
   Step          Temp          PotEng    
   3400000   1364.9111     -39682.899    
   3410000   1348.9117     -39710.82     
   3420000   1363.7555     -39721.165    
   3430000   1354.9262     -39721.711    
   3440000   1363.4302     -39700.023    
   3450000   1344.0532     -39703.086    
   3460000   1356.6233     -39708.85     
   3470000   1337.6839     -39722.792    
   3480000   1355.9216     -39667.341    
   3490000   1353.5143     -39706.554    
   3500000   1356.1544     -39771.123    
Loop time of 1004.62 on 2 procs for 100000 steps with 10976 atoms

Performance: 8.600 ns/day, 2.791 hours/ns, 99.540 timesteps/s, 1.093 Matom-step/s
12.0% CPU use with 1 MPI tasks x 2 OpenMP threads

MPI task timing breakdown:
Section |  min time  |  avg time  |  max time  |%varavg| %total
---------------------------------------------------------------
Pair    | 895.04     | 895.04     | 895.04     |   0.0 | 89.09
Neigh   | 58.166     | 58.166     | 58.166     |   0.0 |  5.79
Comm    | 7.6179     | 7.6179     | 7.6179     |   0.0 |  0.76
Output  | 0.000299   | 0.000299   | 0.000299   |   0.0 |  0.00
Modify  | 39.473     | 39.473     | 39.473     |   0.0 |  3.93
Other   |            | 4.32       |            |       |  0.43

Nlocal:          10976 ave       10976 max       10976 min
Histogram: 1 0 0 0 0 0 0 0 0 0
Nghost:           9248 ave        9248 max        9248 min
Histogram: 1 0 0 0 0 0 0 0 0 0
Neighs:         353838 ave      353838 max      353838 min
Histogram: 1 0 0 0 0 0 0 0 0 0

Total # of neighbors = 353838
Ave neighs/atom = 32.237427
Neighbor list builds = 9561
Dangerous builds = 0ununfix		2
#Se colecta estadistica
print	  	"Stats collecting starts"
Stats collecting starts
fix		3 all npt temp ${newtemp2} ${newtemp2} 0.1 iso 0.0 0.0 1.0
fix		3 all npt temp 1350 ${newtemp2} 0.1 iso 0.0 0.0 1.0
fix		3 all npt temp 1350 1350 0.1 iso 0.0 0.0 1.0
dump            3 all custom ${ndump} dump.${newtemp2} id type x y z c_peratom fx fy fz
dump            3 all custom 5000 dump.${newtemp2} id type x y z c_peratom fx fy fz
dump            3 all custom 5000 dump.1350 id type x y z c_peratom fx fy fz
dump_modify   	3 element Au Pd
run		${nstat}
run		100000
Last active /omp style is pair_style eam/fs/omp
Per MPI rank memory allocation (min/avg/max) = 13.06 | 13.06 | 13.06 Mbytes
   Step          Temp          PotEng    
   3500000   1356.1544     -39771.123    
   3510000   1370.0211     -39700.462    
   3520000   1359.9313     -39718.795    
   3530000   1354.9483     -39723.31     
   3540000   1360.2752     -39680.748    
   3550000   1363.848      -39715.612    
   3560000   1341.7788     -39689.406    
   3570000   1366.1529     -39706.098    
   3580000   1357.3949     -39715.096    
   3590000   1354.5549     -39709.018    
   3600000   1374.1282     -39698.281    
Loop time of 997.241 on 2 procs for 100000 steps with 10976 atoms

Performance: 8.664 ns/day, 2.770 hours/ns, 100.277 timesteps/s, 1.101 Matom-step/s
11.9% CPU use with 1 MPI tasks x 2 OpenMP threads

MPI task timing breakdown:
Section |  min time  |  avg time  |  max time  |%varavg| %total
---------------------------------------------------------------
Pair    | 882.8      | 882.8      | 882.8      |   0.0 | 88.52
Neigh   | 58.122     | 58.122     | 58.122     |   0.0 |  5.83
Comm    | 7.5647     | 7.5647     | 7.5647     |   0.0 |  0.76
Output  | 0.64528    | 0.64528    | 0.64528    |   0.0 |  0.06
Modify  | 43.775     | 43.775     | 43.775     |   0.0 |  4.39
Other   |            | 4.333      |            |       |  0.43

Nlocal:          10976 ave       10976 max       10976 min
Histogram: 1 0 0 0 0 0 0 0 0 0
Nghost:           9269 ave        9269 max        9269 min
Histogram: 1 0 0 0 0 0 0 0 0 0
Neighs:         352994 ave      352994 max      352994 min
Histogram: 1 0 0 0 0 0 0 0 0 0

Total # of neighbors = 352994
Ave neighs/atom = 32.160532
Neighbor list builds = 9562
Dangerous builds = 0ununfix		3
undump		3
#if "${newtemp2} > ${tempa}" then "jump SELF break"
next a
jump SELF loop
variable	a loop ${n1}
variable	a loop 11
variable	newtemp1 equal v_temp1-(v_a-1)*50
variable	newtemp2 equal v_newtemp1-50
#Rampa de T
print	  	"Temperature ramp starts"
Temperature ramp starts
fix             1 all npt temp ${newtemp1} ${newtemp2} 0.1 iso 0.0 0.0 1.0
fix             1 all npt temp 1350 ${newtemp2} 0.1 iso 0.0 0.0 1.0
fix             1 all npt temp 1350 1300 0.1 iso 0.0 0.0 1.0
run		${nramp}
run		200000
Last active /omp style is pair_style eam/fs/omp
Per MPI rank memory allocation (min/avg/max) = 10.8 | 10.8 | 10.8 Mbytes
   Step          Temp          PotEng    
   3600000   1374.1282     -39698.281    
   3610000   1323.5566     -39708.01     
   3620000   1331.6357     -39700.946    
   3630000   1334.126      -39765.59     
   3640000   1338.7243     -39731.296    
   3650000   1344.6237     -39701.177    
   3660000   1341.0541     -39758.126    
   3670000   1332.8017     -39736.48     
   3680000   1333.9309     -39754.764    
   3690000   1314.2364     -39722.376    
   3700000   1336.883      -39788.429    
   3710000   1332.2235     -39800.594    
   3720000   1314.9939     -39772.336    
   3730000   1323.7483     -39798.745    
   3740000   1325.7575     -39761.199    
   3750000   1326.7858     -39783.982    
   3760000   1290.3161     -39836.599    
   3770000   1313.9501     -39797.526    
   3780000   1298.5105     -39822.006    
   3790000   1303.8589     -39840.781    
   3800000   1298.212      -39785.683    
Loop time of 1925.99 on 2 procs for 200000 steps with 10976 atoms

Performance: 8.972 ns/day, 2.675 hours/ns, 103.843 timesteps/s, 1.140 Matom-step/s
11.6% CPU use with 1 MPI tasks x 2 OpenMP threads

MPI task timing breakdown:
Section |  min time  |  avg time  |  max time  |%varavg| %total
---------------------------------------------------------------
Pair    | 1709.1     | 1709.1     | 1709.1     |   0.0 | 88.74
Neigh   | 115.47     | 115.47     | 115.47     |   0.0 |  6.00
Comm    | 14.805     | 14.805     | 14.805     |   0.0 |  0.77
Output  | 0.000586   | 0.000586   | 0.000586   |   0.0 |  0.00
Modify  | 77.952     | 77.952     | 77.952     |   0.0 |  4.05
Other   |            | 8.678      |            |       |  0.45

Nlocal:          10976 ave       10976 max       10976 min
Histogram: 1 0 0 0 0 0 0 0 0 0
Nghost:           9231 ave        9231 max        9231 min
Histogram: 1 0 0 0 0 0 0 0 0 0
Neighs:         354422 ave      354422 max      354422 min
Histogram: 1 0 0 0 0 0 0 0 0 0

Total # of neighbors = 354422
Ave neighs/atom = 32.290634
Neighbor list builds = 18936
Dangerous builds = unfunfix		1
#Equilibrio a nueva T
print	  	"Equilibration starts"
Equilibration starts
fix		2 all npt temp ${newtemp2} ${newtemp2} 0.1 iso 0.0 0.0 1.0
fix		2 all npt temp 1300 ${newtemp2} 0.1 iso 0.0 0.0 1.0
fix		2 all npt temp 1300 1300 0.1 iso 0.0 0.0 1.0
run 		${nequil}
run 		100000
Last active /omp style is pair_style eam/fs/omp
Per MPI rank memory allocation (min/avg/max) = 10.8 | 10.8 | 10.8 Mbytes
   Step          Temp          PotEng    
   3800000   1298.212      -39785.683    
   3810000   1307.5829     -39814.95     
   3820000   1305.9931     -39830.356    
   3830000   1281.9882     -39859.559    
   3840000   1302.2802     -39825.187    
   3850000   1304.8292     -39818.268    
   3860000   1310.9726     -39860.336    
   3870000   1318.1381     -39836.662    
   3880000   1296.1553     -39853.02     
   3890000   1304.0958     -39815.389    
   3900000   1296.6777     -39848.746    
Loop time of 986.098 on 2 procs for 100000 steps with 10976 atoms

Performance: 8.762 ns/day, 2.739 hours/ns, 101.410 timesteps/s, 1.113 Matom-step/s
19.0% CPU use with 1 MPI tasks x 2 OpenMP threads

MPI task timing breakdown:
Section |  min time  |  avg time  |  max time  |%varavg| %total
---------------------------------------------------------------
Pair    | 878.02     | 878.02     | 878.02     |   0.0 | 89.04
Neigh   | 57.059     | 57.059     | 57.059     |   0.0 |  5.79
Comm    | 7.4546     | 7.4546     | 7.4546     |   0.0 |  0.76
Output  | 0.000314   | 0.000314   | 0.000314   |   0.0 |  0.00
Modify  | 39.201     | 39.201     | 39.201     |   0.0 |  3.98
Other   |            | 4.365      |            |       |  0.44

Nlocal:          10976 ave       10976 max       10976 min
Histogram: 1 0 0 0 0 0 0 0 0 0
Nghost:           9198 ave        9198 max        9198 min
Histogram: 1 0 0 0 0 0 0 0 0 0
Neighs:         354983 ave      354983 max      354983 min
Histogram: 1 0 0 0 0 0 0 0 0 0

Total # of neighbors = 354983
Ave neighs/atom = 32.341746
Neighbor list builds = 9376
Dangerous builds =unfiunfix		2
#Se colecta estadistica
print	  	"Stats collecting starts"
Stats collecting starts
fix		3 all npt temp ${newtemp2} ${newtemp2} 0.1 iso 0.0 0.0 1.0
fix		3 all npt temp 1300 ${newtemp2} 0.1 iso 0.0 0.0 1.0
fix		3 all npt temp 1300 1300 0.1 iso 0.0 0.0 1.0
dump            3 all custom ${ndump} dump.${newtemp2} id type x y z c_peratom fx fy fz
dump            3 all custom 5000 dump.${newtemp2} id type x y z c_peratom fx fy fz
dump            3 all custom 5000 dump.1300 id type x y z c_peratom fx fy fz
dump_modify   	3 element Au Pd
run		${nstat}
run		100000
Last active /omp style is pair_style eam/fs/omp
Per MPI rank memory allocation (min/avg/max) = 13.06 | 13.06 | 13.06 Mbytes
   Step          Temp          PotEng    
   3900000   1296.6777     -39848.746    
   3910000   1286.982      -39822.807    
   3920000   1315.6388     -39830.126    
   3930000   1297.067      -39812.135    
   3940000   1285.072      -39843.911    
   3950000   1312.9469     -39844.377    
   3960000   1298.9362     -39824.022    
   3970000   1294.0788     -39842.872    
   3980000   1300.2048     -39850.991    
   3990000   1279.1575     -39842.901    
   4000000   1309.7232     -39838.507    
Loop time of 985.186 on 2 procs for 100000 steps with 10976 atoms

Performance: 8.770 ns/day, 2.737 hours/ns, 101.504 timesteps/s, 1.114 Matom-step/s
36.9% CPU use with 1 MPI tasks x 2 OpenMP threads

MPI task timing breakdown:
Section |  min time  |  avg time  |  max time  |%varavg| %total
---------------------------------------------------------------
Pair    | 872.5      | 872.5      | 872.5      |   0.0 | 88.56
Neigh   | 57.054     | 57.054     | 57.054     |   0.0 |  5.79
Comm    | 7.4361     | 7.4361     | 7.4361     |   0.0 |  0.75
Output  | 0.65325    | 0.65325    | 0.65325    |   0.0 |  0.07
Modify  | 43.226     | 43.226     | 43.226     |   0.0 |  4.39
Other   |            | 4.319      |            |       |  0.44

Nlocal:          10976 ave       10976 max       10976 min
Histogram: 1 0 0 0 0 0 0 0 0 0
Nghost:           9257 ave        9257 max        9257 min
Histogram: 1 0 0 0 0 0 0 0 0 0
Neighs:         355753 ave      355753 max      355753 min
Histogram: 1 0 0 0 0 0 0 0 0 0

Total # of neighbors = 355753
Ave neighs/atom = 32.411899
Neighbor list builds = 9398
Dangerous builds =unfiunfix		3
undump		3
#if "${newtemp2} > ${tempa}" then "jump SELF break"
next a
jump SELF loop
variable	a loop ${n1}
variable	a loop 11
variable	newtemp1 equal v_temp1-(v_a-1)*50
variable	newtemp2 equal v_newtemp1-50
#Rampa de T
print	  	"Temperature ramp starts"
Temperature ramp starts
fix             1 all npt temp ${newtemp1} ${newtemp2} 0.1 iso 0.0 0.0 1.0
fix             1 all npt temp 1300 ${newtemp2} 0.1 iso 0.0 0.0 1.0
fix             1 all npt temp 1300 1250 0.1 iso 0.0 0.0 1.0
run		${nramp}
run		200000
Last active /omp style is pair_style eam/fs/omp
Per MPI rank memory allocation (min/avg/max) = 10.8 | 10.8 | 10.8 Mbytes
   Step          Temp          PotEng    
   4000000   1309.7232     -39838.507    
   4010000   1277.5238     -39891.844    
   4020000   1295.2897     -39833.32     
   4030000   1300.5728     -39845.761    
   4040000   1296.4759     -39824.067    
   4050000   1258.5519     -39856.196    
   4060000   1283.0804     -39839.427    
   4070000   1292.3041     -39878.593    
   4080000   1274.3076     -39859.213    
   4090000   1277.7655     -39915.583    
   4100000   1276.8938     -39902.606    
   4110000   1276.0851     -39918.082    
   4120000   1257.5261     -39922.686    
   4130000   1286.0573     -39911.512    
   4140000   1266.9304     -39965.852    
   4150000   1257.4985     -39963.114    
   4160000   1266.9393     -39937.292    
   4170000   1251.3859     -39939.148    
   4180000   1244.4843     -39950.239    
   4190000   1257.0054     -39934.459    
   4200000   1257.6466     -40042.105    
Loop time of 1920.42 on 2 procs for 200000 steps with 10976 atoms

Performance: 8.998 ns/day, 2.667 hours/ns, 104.144 timesteps/s, 1.143 Matom-step/s
36.7% CPU use with 1 MPI tasks x 2 OpenMP threads

MPI task timing breakdown:
Section |  min time  |  avg time  |  max time  |%varavg| %total
---------------------------------------------------------------
Pair    | 1706.7     | 1706.7     | 1706.7     |   0.0 | 88.87
Neigh   | 113.13     | 113.13     | 113.13     |   0.0 |  5.89
Comm    | 14.645     | 14.645     | 14.645     |   0.0 |  0.76
Output  | 0.000581   | 0.000581   | 0.000581   |   0.0 |  0.00
Modify  | 77.211     | 77.211     | 77.211     |   0.0 |  4.02
[...]

MPI task timing breakdown:
Section |  min time  |  avg time  |  max time  |%varavg| %total
---------------------------------------------------------------
Pair    | 1925.9     | 1925.9     | 1925.9     |   0.0 | 90.69
Neigh   | 90.908     | 90.908     | 90.908     |   0.0 |  4.28
Comm    | 15.262     | 15.262     | 15.262     |   0.0 |  0.72
Output  | 0.000675   | 0.000675   | 0.000675   |   0.0 |  0.00
Modify  | 82.623     | 82.623     | 82.623     |   0.0 |  3.89
Other   |            | 8.876      |            |       |  0.42

Nlocal:          10976 ave       10976 max       10976 min
Histogram: 1 0 0 0 0 0 0 0 0 0
Nghost:           9622 ave        9622 max        9622 min
Histogram: 1 0 0 0 0 0 0 0 0 0
Neighs:         376662 ave      376662 max      376662 min
Histogram: 1 0 0 0 0 0 0 0 0 0

Total # of neighbors = 376662
Ave neighs/atom = 34.316873
Neighbor list builds = 14250
Dangerous builunfix		1unfix		1
#Equilibrio a nueva T
print	  	"Equilibration starts"
Equilibration starts
fix		2 all npt temp ${newtemp2} ${newtemp2} 0.1 iso 0.0 0.0 1.0
fix		2 all npt temp 700 ${newtemp2} 0.1 iso 0.0 0.0 1.0
fix		2 all npt temp 700 700 0.1 iso 0.0 0.0 1.0
run 		${nequil}
run 		100000
Last active /omp style is pair_style eam/fs/omp
Per MPI rank memory allocation (min/avg/max) = 10.8 | 10.8 | 10.8 Mbytes
   Step          Temp          PotEng    
   8600000   699.47707     -41493.701    
   8610000   700.59764     -41506.22     
   8620000   697.52712     -41503.16     
   8630000   695.68164     -41506.586    
   8640000   695.98195     -41505.724    
   8650000   705.93654     -41498.873    
   8660000   690.55963     -41492.859    
   8670000   702.68944     -41495.919    
   8680000   701.62493     -41491.139    
   8690000   698.62769     -41520.533    
   8700000   699.15163     -41491.224    
Loop time of 2184.04 on 2 procs for 100000 steps with 10976 atoms

Performance: 3.956 ns/day, 6.067 hours/ns, 45.787 timesteps/s, 502.556 katom-step/s
44.3% CPU use with 1 MPI tasks x 2 OpenMP threads

MPI task timing breakdown:
Section |  min time  |  avg time  |  max time  |%varavg| %total
---------------------------------------------------------------
Pair    | 2019.2     | 2019.2     | 2019.2     |   0.0 | 92.45
Neigh   | 60.849     | 60.849     | 60.849     |   0.0 |  2.79
Comm    | 15.468     | 15.468     | 15.468     |   0.0 |  0.71
Output  | 0.000363   | 0.000363   | 0.000363   |   0.0 |  0.00
Modify  | 80.619     | 80.619     | 80.619     |   0.0 |  3.69
Other   |            | 7.907      |            |       |  0.36

Nlocal:          10976 ave       10976 max       10976 min
Histogram: 1 0 0 0 0 0 0 0 0 0
Nghost:           9564 ave        9564 max        9564 min
Histogram: 1 0 0 0 0 0 0 0 0 0
Neighs:         376061 ave      376061 max      376061 min
Histogram: 1 0 0 0 0 0 0 0 0 0

Total # of neighbors = 376061
Ave neighs/atom = 34.262117
Neighbor list builds = 7008
Dangerous builunfix		2unfix		2
#Se colecta estadistica
print	  	"Stats collecting starts"
Stats collecting starts
fix		3 all npt temp ${newtemp2} ${newtemp2} 0.1 iso 0.0 0.0 1.0
fix		3 all npt temp 700 ${newtemp2} 0.1 iso 0.0 0.0 1.0
fix		3 all npt temp 700 700 0.1 iso 0.0 0.0 1.0
dump            3 all custom ${ndump} dump.${newtemp2} id type x y z c_peratom fx fy fz
dump            3 all custom 5000 dump.${newtemp2} id type x y z c_peratom fx fy fz
dump            3 all custom 5000 dump.700 id type x y z c_peratom fx fy fz
dump_modify   	3 element Au Pd
#neigh_modify    once yes
run		${nstat}
run		100000
Last active /omp style is pair_style eam/fs/omp
Per MPI rank memory allocation (min/avg/max) = 13.06 | 13.06 | 13.06 Mbytes
   Step          Temp          PotEng    
   8700000   699.15163     -41491.224    
   8710000   695.48748     -41498.12     
   8720000   692.07544     -41513.735    
   8730000   692.41998     -41507.585    
   8740000   691.0847      -41525.44     
   8750000   691.42277     -41513.039    
   8760000   699.64684     -41533.352    
   8770000   699.77482     -41525.204    
   8780000   699.90485     -41513.158    
   8790000   697.35009     -41523.035    
   8800000   701.58646     -41523.401    
Loop time of 2686.29 on 2 procs for 100000 steps with 10976 atoms

Performance: 3.216 ns/day, 7.462 hours/ns, 37.226 timesteps/s, 408.593 katom-step/s
44.0% CPU use with 1 MPI tasks x 2 OpenMP threads

MPI task timing breakdown:
Section |  min time  |  avg time  |  max time  |%varavg| %total
---------------------------------------------------------------
Pair    | 2482.9     | 2482.9     | 2482.9     |   0.0 | 92.43
Neigh   | 70.877     | 70.877     | 70.877     |   0.0 |  2.64
Comm    | 18.321     | 18.321     | 18.321     |   0.0 |  0.68
Output  | 1.0877     | 1.0877     | 1.0877     |   0.0 |  0.04
Modify  | 103.64     | 103.64     | 103.64     |   0.0 |  3.86
Other   |            | 9.461      |            |       |  0.35

Nlocal:          10976 ave       10976 max       10976 min
Histogram: 1 0 0 0 0 0 0 0 0 0
Nghost:           9606 ave        9606 max        9606 min
Histogram: 1 0 0 0 0 0 0 0 0 0
Neighs:         377154 ave      377154 max      377154 min
Histogram: 1 0 0 0 0 0 0 0 0 0

Total # of neighbors = 377154
Ave neighs/atom = 34.361698
Neighbor list builds = 7008
Dangerous builunfix		3unfix		3
undump		3
#if "${newtemp2} > ${temp2}" then "jump SELF break3"
next c
jump SELF loop3
variable	c loop ${n3}
variable	c loop 11
variable	newtemp1 equal v_tempb-(v_c-1)*50
variable	newtemp2 equal v_newtemp1-50
#Rampa de T
print	  	"Temperature ramp starts"
Temperature ramp starts
fix             1 all npt temp ${newtemp1} ${newtemp2} 0.1 iso 0.0 0.0 1.0
fix             1 all npt temp 700 ${newtemp2} 0.1 iso 0.0 0.0 1.0
fix             1 all npt temp 700 650 0.1 iso 0.0 0.0 1.0
run		${nramp}
run		200000
Last active /omp style is pair_style eam/fs/omp
Per MPI rank memory allocation (min/avg/max) = 10.8 | 10.8 | 10.8 Mbytes
   Step          Temp          PotEng    
   8800000   701.58646     -41523.401    
   8810000   699.9567      -41530.205    
   8820000   689.19641     -41545.88     
   8830000   689.30007     -41565.088    
   8840000   694.35782     -41602.994    
   8850000   684.5086      -41609.846    
   8860000   685.39199     -41630.071    
   8870000   678.53265     -41643.316    
   8880000   687.90518     -41680.141    
   8890000   677.03082     -41712.856    
   8900000   677.22387     -41754.077    
   8910000   662.0721      -41792.303    
   8920000   673.74036     -41861.424    
   8930000   666.72383     -41917.74     
   8940000   673.72573     -41991.723    
   8950000   673.67051     -42050.276    
   8960000   662.41836     -42106.486    
   8970000   662.09768     -42146.66     
   8980000   653.22484     -42155.892    
   8990000   645.40342     -42184.323    
   9000000   645.5022      -42212.832    
Loop time of 4013.78 on 2 procs for 200000 steps with 10976 atoms

Performance: 4.305 ns/day, 5.575 hours/ns, 49.828 timesteps/s, 546.915 katom-step/s
41.0% CPU use with 1 MPI tasks x 2 OpenMP threads

MPI task timing breakdown:
Section |  min time  |  avg time  |  max time  |%varavg| %total
---------------------------------------------------------------
Pair    | 3666.6     | 3666.6     | 3666.6     |   0.0 | 91.35
Neigh   | 118.94     | 118.94     | 118.94     |   0.0 |  2.96
Comm    | 27.91      | 27.91      | 27.91      |   0.0 |  0.70
Output  | 0.000825   | 0.000825   | 0.000825   |   0.0 |  0.00
Modify  | 185.18     | 185.18     | 185.18     |   0.0 |  4.61
Other   |            | 15.18      |            |       |  0.38

Nlocal:          10976 ave       10976 max       10976 min
Histogram: 1 0 0 0 0 0 0 0 0 0
Nghost:           9758 ave        9758 max        9758 min
Histogram: 1 0 0 0 0 0 0 0 0 0
Neighs:         398398 ave      398398 max      398398 min
Histogram: 1 0 0 0 0 0 0 0 0 0

Total # of neighbors = 398398
Ave neighs/atom = 36.297194
Neighbor list builds = 13786
Dangerous builunfix		1unfix		1
#Equilibrio a nueva T
print	  	"Equilibration starts"
Equilibration starts
fix		2 all npt temp ${newtemp2} ${newtemp2} 0.1 iso 0.0 0.0 1.0
fix		2 all npt temp 650 ${newtemp2} 0.1 iso 0.0 0.0 1.0
fix		2 all npt temp 650 650 0.1 iso 0.0 0.0 1.0
run 		${nequil}
run 		100000
Last active /omp style is pair_style eam/fs/omp
Per MPI rank memory allocation (min/avg/max) = 12.33 | 12.33 | 12.33 Mbytes
   Step          Temp          PotEng    
   9000000   645.5022      -42212.832    
   9010000   646.94795     -42209.885    
   9020000   650.08622     -42244.696    
   9030000   647.74148     -42260.87     
   9040000   647.43586     -42284.086    
   9050000   647.77299     -42305.145    
   9060000   649.86628     -42310.128    
   9070000   651.27719     -42298.421    
   9080000   645.37609     -42298.274    
   9090000   647.25488     -42307.305    
   9100000   646.0466      -42321.303    
Loop time of 1521.81 on 2 procs for 100000 steps with 10976 atoms

Performance: 5.677 ns/day, 4.227 hours/ns, 65.711 timesteps/s, 721.246 katom-step/s
30.7% CPU use with 1 MPI tasks x 2 OpenMP threads

MPI task timing breakdown:
Section |  min time  |  avg time  |  max time  |%varavg| %total
---------------------------------------------------------------
Pair    | 1337.7     | 1337.7     | 1337.7     |   0.0 | 87.90
Neigh   | 49.947     | 49.947     | 49.947     |   0.0 |  3.28
Comm    | 9.7111     | 9.7111     | 9.7111     |   0.0 |  0.64
Output  | 0.000331   | 0.000331   | 0.000331   |   0.0 |  0.00
Modify  | 118.52     | 118.52     | 118.52     |   0.0 |  7.79
Other   |            | 5.929      |            |       |  0.39

Nlocal:          10976 ave       10976 max       10976 min
Histogram: 1 0 0 0 0 0 0 0 0 0
Nghost:           9773 ave        9773 max        9773 min
Histogram: 1 0 0 0 0 0 0 0 0 0
Neighs:         403113 ave      403113 max      403113 min
Histogram: 1 0 0 0 0 0 0 0 0 0

Total # of neighbors = 403113
Ave neighs/atom = 36.726767
Neighbor list builds = 6765
Dangerous builunfix		2unfix		2
#Se colecta estadistica
print	  	"Stats collecting starts"
Stats collecting starts
fix		3 all npt temp ${newtemp2} ${newtemp2} 0.1 iso 0.0 0.0 1.0
fix		3 all npt temp 650 ${newtemp2} 0.1 iso 0.0 0.0 1.0
fix		3 all npt temp 650 650 0.1 iso 0.0 0.0 1.0
dump            3 all custom ${ndump} dump.${newtemp2} id type x y z c_peratom fx fy fz
dump            3 all custom 5000 dump.${newtemp2} id type x y z c_peratom fx fy fz
dump            3 all custom 5000 dump.650 id type x y z c_peratom fx fy fz
dump_modify   	3 element Au Pd
#neigh_modify    once yes
run		${nstat}
run		100000
Last active /omp style is pair_style eam/fs/omp
Per MPI rank memory allocation (min/avg/max) = 14.59 | 14.59 | 14.59 Mbytes
   Step          Temp          PotEng    
   9100000   646.0466      -42321.303    
   9110000   652.146       -42284.991    
   9120000   646.94599     -42313.206    
   9130000   646.1983      -42325.194    
   9140000   649.41196     -42299.856    
   9150000   643.17507     -42323.182    
   9160000   649.52512     -42323.094    
   9170000   656.69744     -42319.783    
   9180000   652.03819     -42324.834    
   9190000   650.98833     -42326.574    
   9200000   649.96801     -42320.414    
Loop time of 1247.12 on 2 procs for 100000 steps with 10976 atoms

Performance: 6.928 ns/day, 3.464 hours/ns, 80.185 timesteps/s, 880.109 katom-step/s
31.3% CPU use with 1 MPI tasks x 2 OpenMP threads

MPI task timing breakdown:
Section |  min time  |  avg time  |  max time  |%varavg| %total
---------------------------------------------------------------
Pair    | 1137.4     | 1137.4     | 1137.4     |   0.0 | 91.20
Neigh   | 45.959     | 45.959     | 45.959     |   0.0 |  3.69
Comm    | 8.3894     | 8.3894     | 8.3894     |   0.0 |  0.67
Output  | 0.68946    | 0.68946    | 0.68946    |   0.0 |  0.06
Modify  | 50.021     | 50.021     | 50.021     |   0.0 |  4.01
Other   |            | 4.686      |            |       |  0.38

Nlocal:          10976 ave       10976 max       10976 min
Histogram: 1 0 0 0 0 0 0 0 0 0
Nghost:           9780 ave        9780 max        9780 min
Histogram: 1 0 0 0 0 0 0 0 0 0
Neighs:         403369 ave      403369 max      403369 min
Histogram: 1 0 0 0 0 0 0 0 0 0

Total # of neighbors = 403369
Ave neighs/atom = 36.750091
Neighbor list builds = 6767
Dangerous builunfix		3unfix		3
undump		3
#if "${newtemp2} > ${temp2}" then "jump SELF break3"
next c
jump SELF loop3
variable	c loop ${n3}
variable	c loop 11
variable	newtemp1 equal v_tempb-(v_c-1)*50
variable	newtemp2 equal v_newtemp1-50
#Rampa de T
print	  	"Temperature ramp starts"
Temperature ramp starts
fix             1 all npt temp ${newtemp1} ${newtemp2} 0.1 iso 0.0 0.0 1.0
fix             1 all npt temp 650 ${newtemp2} 0.1 iso 0.0 0.0 1.0
fix             1 all npt temp 650 600 0.1 iso 0.0 0.0 1.0
run		${nramp}
run		200000
Last active /omp style is pair_style eam/fs/omp
Per MPI rank memory allocation (min/avg/max) = 12.33 | 12.33 | 12.33 Mbytes
   Step          Temp          PotEng    
   9200000   649.96801     -42320.414    
   9210000   647.85803     -42331.876    
   9220000   643.24039     -42313.868    
   9230000   637.00322     -42328.247    
   9240000   636.15366     -42340.703    
   9250000   643.26528     -42342.41     
   9260000   636.0388      -42350.508    
   9270000   639.97323     -42334.11     
   9280000   634.60464     -42345.801    
   9290000   630.88246     -42354.48     
   9300000   621.61715     -42371.583    
   9310000   615.78856     -42373.503    
   9320000   615.49924     -42382.545    
   9330000   618.25602     -42374.987    
   9340000   604.2921      -42378.094    
   9350000   614.60912     -42383.489    
   9360000   611.18811     -42395.456    
   9370000   610.13692     -42391.539    
   9380000   601.24385     -42400.732    
   9390000   610.16004     -42399.02     
   9400000   599.95981     -42401.473    
Loop time of 2094.84 on 2 procs for 200000 steps with 10976 atoms

Performance: 8.249 ns/day, 2.910 hours/ns, 95.473 timesteps/s, 1.048 Matom-step/s
29.3% CPU use with 1 MPI tasks x 2 OpenMP threads

MPI task timing breakdown:
Section |  min time  |  avg time  |  max time  |%varavg| %total
---------------------------------------------------------------
Pair    | 1907.8     | 1907.8     | 1907.8     |   0.0 | 91.07
Neigh   | 85.337     | 85.337     | 85.337     |   0.0 |  4.07
Comm    | 14.164     | 14.164     | 14.164     |   0.0 |  0.68
Output  | 0.000581   | 0.000581   | 0.000581   |   0.0 |  0.00
Modify  | 79.162     | 79.162     | 79.162     |   0.0 |  3.78
Other   |            | 8.357      |            |       |  0.40

Nlocal:          10976 ave       10976 max       10976 min
Histogram: 1 0 0 0 0 0 0 0 0 0
Nghost:           9756 ave        9756 max        9756 min
Histogram: 1 0 0 0 0 0 0 0 0 0
Neighs:         405120 ave      405120 max      405120 min
Histogram: 1 0 0 0 0 0 0 0 0 0

Total # of neighbors = 405120
Ave neighs/atom = 36.909621
Neighbor list builds = 13276
Dangerous builunfix		1unfix		1
#Equilibrio a nueva T
print	  	"Equilibration starts"
Equilibration starts
fix		2 all npt temp ${newtemp2} ${newtemp2} 0.1 iso 0.0 0.0 1.0
fix		2 all npt temp 600 ${newtemp2} 0.1 iso 0.0 0.0 1.0
fix		2 all npt temp 600 600 0.1 iso 0.0 0.0 1.0
run 		${nequil}
run 		100000
Last active /omp style is pair_style eam/fs/omp
Per MPI rank memory allocation (min/avg/max) = 12.33 | 12.33 | 12.33 Mbytes
   Step          Temp          PotEng    
   9400000   599.95981     -42401.473    
   9410000   601.90817     -42411.575    
   9420000   589.74466     -42414.366    
   9430000   602.15894     -42409.128    
   9440000   606.29568     -42397.317    
   9450000   599.41934     -42415.732    
   9460000   592.55042     -42412.839    
   9470000   598.25911     -42413.08     
   9480000   605.4289      -42408.894    
   9490000   602.87482     -42409.596    
   9500000   609.83526     -42399.858    
Loop time of 1044.16 on 2 procs for 100000 steps with 10976 atoms

Performance: 8.275 ns/day, 2.900 hours/ns, 95.771 timesteps/s, 1.051 Matom-step/s
29.6% CPU use with 1 MPI tasks x 2 OpenMP threads

MPI task timing breakdown:
Section |  min time  |  avg time  |  max time  |%varavg| %total
---------------------------------------------------------------
Pair    | 951.6      | 951.6      | 951.6      |   0.0 | 91.14
Neigh   | 41.725     | 41.725     | 41.725     |   0.0 |  4.00
Comm    | 7.0433     | 7.0433     | 7.0433     |   0.0 |  0.67
Output  | 0.000297   | 0.000297   | 0.000297   |   0.0 |  0.00
Modify  | 39.609     | 39.609     | 39.609     |   0.0 |  3.79
Other   |            | 4.179      |            |       |  0.40

Nlocal:          10976 ave       10976 max       10976 min
Histogram: 1 0 0 0 0 0 0 0 0 0
Nghost:           9769 ave        9769 max        9769 min
Histogram: 1 0 0 0 0 0 0 0 0 0
Neighs:         404814 ave      404814 max      404814 min
Histogram: 1 0 0 0 0 0 0 0 0 0

Total # of neighbors = 404814
Ave neighs/atom = 36.881742
Neighbor list builds = 6514
Dangerous builunfix		2unfix		2
#Se colecta estadistica
print	  	"Stats collecting starts"
Stats collecting starts
fix		3 all npt temp ${newtemp2} ${newtemp2} 0.1 iso 0.0 0.0 1.0
fix		3 all npt temp 600 ${newtemp2} 0.1 iso 0.0 0.0 1.0
fix		3 all npt temp 600 600 0.1 iso 0.0 0.0 1.0
dump            3 all custom ${ndump} dump.${newtemp2} id type x y z c_peratom fx fy fz
dump            3 all custom 5000 dump.${newtemp2} id type x y z c_peratom fx fy fz
dump            3 all custom 5000 dump.600 id type x y z c_peratom fx fy fz
dump_modify   	3 element Au Pd
#neigh_modify    once yes
run		${nstat}
run		100000
Last active /omp style is pair_style eam/fs/omp
Per MPI rank memory allocation (min/avg/max) = 14.59 | 14.59 | 14.59 Mbytes
   Step          Temp          PotEng    
   9500000   609.83526     -42399.858    
   9510000   599.29827     -42406.561    
   9520000   593.99884     -42405.81     
   9530000   601.79931     -42415.453    
   9540000   599.64375     -42408.3      
   9550000   597.48197     -42401.5      
   9560000   600.88013     -42401.559    
   9570000   599.39477     -42409.183    
   9580000   602.0869      -42412.823    
   9590000   599.65322     -42415.805    
   9600000   597.44715     -42407.305    
Loop time of 1041.33 on 2 procs for 100000 steps with 10976 atoms

Performance: 8.297 ns/day, 2.893 hours/ns, 96.031 timesteps/s, 1.054 Matom-step/s
30.3% CPU use with 1 MPI tasks x 2 OpenMP threads

MPI task timing breakdown:
Section |  min time  |  avg time  |  max time  |%varavg| %total
---------------------------------------------------------------
Pair    | 943.13     | 943.13     | 943.13     |   0.0 | 90.57
Neigh   | 41.758     | 41.758     | 41.758     |   0.0 |  4.01
Comm    | 7.018      | 7.018      | 7.018      |   0.0 |  0.67
Output  | 0.67933    | 0.67933    | 0.67933    |   0.0 |  0.07
Modify  | 44.526     | 44.526     | 44.526     |   0.0 |  4.28
Other   |            | 4.214      |            |       |  0.40

Nlocal:          10976 ave       10976 max       10976 min
Histogram: 1 0 0 0 0 0 0 0 0 0
Nghost:           9783 ave        9783 max        9783 min
Histogram: 1 0 0 0 0 0 0 0 0 0
Neighs:         405306 ave      405306 max      405306 min
Histogram: 1 0 0 0 0 0 0 0 0 0

Total # of neighbors = 405306
Ave neighs/atom = 36.926567
Neighbor list builds = 6505
Dangerous builds = 0
unfix		3
undump		3
#if "${newtemp2} > ${temp2}" then "jump SELF break3"
next c
jump SELF loop3
#label break3
unfix		5
unfix 		6
unfix 7
print "ALL DONE"
ALL DONE


Total wall time: 36:18:57
