LAMMPS (22 Dec 2022)
OMP_NUM_THREADS environment is not set. Defaulting to 1 thread. (src/comm.cpp:98)
  using 1 OpenMP thread(s) per MPI task
Loaded 1 plugins from C:\Users\diego\AppData\Local\LAMMPS 64-bit 22Dec2022\plugins
package omp 2
set 2 OpenMP thread(s) per MPI task
using multi-threaded neighbor list subroutines
# AuPd nanoparticle, heating
#1 general
units		metal
dimension	3
atom_style      atomic
neighbor        0.3 bin

#2 structure
boundary	p p p
read_data	atoms14.lmp
Reading data file ...
  orthogonal box = (0 0 0) to (54.46 54.46 54.46)
  1 by 1 by 1 MPI processor grid
  reading atoms ...
  10976 atoms
  read_data CPU = 0.028 seconds
#mass        1 196.967
#mass		2 106.42


#3 variables
# Variables que controlan extension de simulacion
variable        tstep equal 0.001
variable nramp equal 200000
variable nequil equal 100000
variable nstat equal 100000
variable ntherm equal v_nequil/10
variable ndump equal v_nstat/20

# temperatura de melting
variable   tempm equal 1300
variable 	natoms equal "count(all)"
variable	temp0 equal 1.0
variable    	temp1 equal 600
variable tempa equal v_tempm-50
variable    tempb equal v_tempm+50
variable    	temp2 equal 2000
variable n1 equal (v_tempa-v_temp1)/50
variable n2 equal (v_tempb-v_tempa)/50
variable n3 equal (v_temp2-v_tempb)/50
variable	pressure equal 0.0


#4 potentials
pair_style eam/fs
pair_coeff * * AuPd.fs Au Pd

#5 optimize at 0 K
#dump           1 all custom 1 dump.minimization id type x y z
#fix		1 all box/relax dilate all #Para relajar la caja
#min_style	cg
#minimize	1.0e-6 1.06e-6 10000 10000
#run 1
#undump		1
#unfix		1

#6 optimize at T=1
compute		peratom all pe/atom
reset_timestep	0
timestep	${tstep}
timestep	0.001

#Se generan velocidades aleatorias
velocity	all create ${temp0} 12345 mom yes rot yes
velocity	all create 1 12345 mom yes rot yes

#Se realiza NPT
fix             1 all npt temp ${temp0} ${temp0} 0.1 iso 0.0 0.0 1.0
fix             1 all npt temp 1 ${temp0} 0.1 iso 0.0 0.0 1.0
fix             1 all npt temp 1 1 0.1 iso 0.0 0.0 1.0
dump            1 all custom ${ndump} dump.${temp0} id type x y z c_peratom fx fy fz
dump            1 all custom 5000 dump.${temp0} id type x y z c_peratom fx fy fz
dump            1 all custom 5000 dump.1 id type x y z c_peratom fx fy fz
dump_modify   	1 element Au Pd
thermo		${ntherm}
thermo		10000
thermo_style	custom step temp pe

#neigh_modify    once yes
run		${nequil}
run		100000
Last active /omp style is pair_style eam/fs/omp
Neighbor list info ...
  update: every = 1 steps, delay = 0 steps, check = yes
  max neighbors/atom: 2000, page size: 100000
  master list distance cutoff = 6.8
  ghost atom cutoff = 6.8
  binsize = 3.4, bins = 17 17 17
  1 neighbor lists, perpetual/occasional/extra = 1 0 0
  (1) pair eam/fs/omp, perpetual
      attributes: half, newton on, omp
      pair build: half/bin/atomonly/newton/omp
      stencil: half/bin/3d
      bin: standard
Per MPI rank memory allocation (min/avg/max) = 12.02 | 12.02 | 12.02 Mbytes
   Step          Temp          PotEng    
         0   1             -41591.09     
     10000   0.97823628    -43450.818    
     20000   0.99614443    -43450.795    
     30000   1.0289269     -43450.748    
     40000   0.99860282    -43450.797    
     50000   0.98466074    -43450.821    
     60000   1.0028567     -43450.796    
     70000   1.0011219     -43450.788    
     80000   1.0060693     -43450.786    
     90000   1.0053276     -43450.796    
    100000   1.0045912     -43450.78     
Loop time of 927.376 on 2 procs for 100000 steps with 10976 atoms

Performance: 9.317 ns/day, 2.576 hours/ns, 107.831 timesteps/s, 1.184 Matom-step/s
11.9% CPU use with 1 MPI tasks x 2 OpenMP threads

MPI task timing breakdown:
Section |  min time  |  avg time  |  max time  |%varavg| %total
---------------------------------------------------------------
Pair    | 881.03     | 881.03     | 881.03     |   0.0 | 95.00
Neigh   | 0.055591   | 0.055591   | 0.055591   |   0.0 |  0.01
Comm    | 5.3483     | 5.3483     | 5.3483     |   0.0 |  0.58
Output  | 0.6882     | 0.6882     | 0.6882     |   0.0 |  0.07
Modify  | 36.805     | 36.805     | 36.805     |   0.0 |  3.97
Other   |            | 3.447      |            |       |  0.37

Nlocal:          10976 ave       10976 max       10976 min
Histogram: 1 0 0 0 0 0 0 0 0 0
Nghost:          10461 ave       10461 max       10461 min
Histogram: 1 0 0 0 0 0 0 0 0 0
Neighs:         428064 ave      428064 max      428064 min
Histogram: 1 0 0 0 0 0 0 0 0 0

Total # of neighbors = 428064
Ave neighs/atom = 39
Neighbor list builds = 8
Dangerous builds = 5
unfix		1
undump      1

#7 calentamiento
reset_timestep	0

#Se generan velocidades aleatorias a T inicial
velocity	all create ${temp1} 12346 mom yes rot yes
velocity	all create 600 12346 mom yes rot yes
variable	TEMPE equal "1.0*temp"
variable	PEA equal "pe/v_natoms"

#thermo_style	custom step pe temp PEA
fix		5 all print 1000 "${TEMPE}   ${PEA}" file TEMPvsPEA.dat screen no
fix		6 all ave/time 100 1000 400000 v_TEMPE v_PEA file ave.dat
compute myRDF all rdf 50
fix 7 all ave/time 100 1000 400000 c_myRDF[*] file tmp.rdf mode vector

#Comienza ciclo de calentamiento
print	  	"Heating starts, low temperature"
Heating starts, low temperature
label		loop
variable	a loop ${n1}
variable	a loop 13
variable	newtemp1 equal (v_a-1)*50+v_temp1
variable	newtemp2 equal v_newtemp1+50

#Rampa de T
print	  	"Temperature ramp starts"
Temperature ramp starts
fix             1 all npt temp ${newtemp1} ${newtemp2} 0.1 iso 0.0 0.0 1.0
fix             1 all npt temp 600 ${newtemp2} 0.1 iso 0.0 0.0 1.0
fix             1 all npt temp 600 650 0.1 iso 0.0 0.0 1.0
run		${nramp}
run		200000
Last active /omp style is pair_style eam/fs/omp
Neighbor list info ...
  update: every = 1 steps, delay = 0 steps, check = yes
  max neighbors/atom: 2000, page size: 100000
  master list distance cutoff = 6.8
  ghost atom cutoff = 6.8
  binsize = 3.4, bins = 17 17 17
  2 neighbor lists, perpetual/occasional/extra = 1 1 0
  (1) pair eam/fs/omp, perpetual
      attributes: half, newton on, omp
      pair build: half/bin/atomonly/newton/omp
      stencil: half/bin/3d
      bin: standard
  (2) compute rdf, occasional, copy from (1)
      attributes: half, newton on, omp
      pair build: copy
      stencil: none
      bin: none
Per MPI rank memory allocation (min/avg/max) = 10.02 | 10.02 | 10.02 Mbytes
   Step          Temp          PotEng    
         0   600           -43450.78     
     10000   606.09222     -42522.69     
     20000   604.07001     -42527.745    
     30000   609.08313     -42516.534    
     40000   615.56004     -42524.04     
     50000   611.55412     -42517.62     
     60000   621.7799      -42500.013    
     70000   621.67058     -42510.115    
     80000   612.83007     -42492.611    
     90000   624.72446     -42495.083    
    100000   629.24451     -42471.906    
    110000   634.41416     -42488.931    
    120000   628.44553     -42482.586    
    130000   636.63231     -42463.435    
    140000   637.18686     -42479        
    150000   637.94365     -42460.787    
    160000   645.05798     -42453.966    
    170000   643.5802      -42468.389    
    180000   641.40878     -42447.659    
    190000   649.83804     -42459.074    
    200000   655.96634     -42456.707    
Loop time of 2145.79 on 2 procs for 200000 steps with 10976 atoms

Performance: 8.053 ns/day, 2.980 hours/ns, 93.206 timesteps/s, 1.023 Matom-step/s
12.6% CPU use with 1 MPI tasks x 2 OpenMP threads

MPI task timing breakdown:
Section |  min time  |  avg time  |  max time  |%varavg| %total
---------------------------------------------------------------
Pair    | 1953.9     | 1953.9     | 1953.9     |   0.0 | 91.06
Neigh   | 88.046     | 88.046     | 88.046     |   0.0 |  4.10
Comm    | 14.874     | 14.874     | 14.874     |   0.0 |  0.69
Output  | 0.000596   | 0.000596   | 0.000596   |   0.0 |  0.00
Modify  | 80.562     | 80.562     | 80.562     |   0.0 |  3.75
Other   |            | 8.423      |            |       |  0.39

Nlocal:          10976 ave       10976 max       10976 min
Histogram: 1 0 0 0 0 0 0 0 0 0
Nghost:          10461 ave       10461 max       10461 min
Histogram: 1 0 0 0 0 0 0 0 0 0
Neighs:         422379 ave      422379 max      422379 min
Histogram: 1 0 0 0 0 0 0 0 0 0

Total # of neighbors = 422379
Ave neighs/atom = 38.482052
Neighbor list builds = 13260
Dangerous builds = 0
unfix		1

#Equilibrio a nueva T
print	  	"Equilibration starts"
Equilibration starts
fix		2 all npt temp ${newtemp2} ${newtemp2} 0.1 iso 0.0 0.0 1.0
fix		2 all npt temp 650 ${newtemp2} 0.1 iso 0.0 0.0 1.0
fix		2 all npt temp 650 650 0.1 iso 0.0 0.0 1.0
run 		${nequil}
run 		100000
Last active /omp style is pair_style eam/fs/omp
Per MPI rank memory allocation (min/avg/max) = 10.02 | 10.02 | 10.02 Mbytes
   Step          Temp          PotEng    
    200000   655.96634     -42456.707    
    210000   658.23213     -42447.376    
    220000   649.98723     -42452.7      
    230000   653.20667     -42446.989    
    240000   653.08279     -42457.437    
    250000   649.59508     -42441.78     
    260000   649.43111     -42444.953    
    270000   650.88197     -42446.298    
    280000   642.93259     -42446.304    
    290000   645.71391     -42422.3      
    300000   653.90287     -42443.653    
Loop time of 1132.09 on 2 procs for 100000 steps with 10976 atoms

Performance: 7.632 ns/day, 3.145 hours/ns, 88.332 timesteps/s, 969.534 katom-step/s
13.4% CPU use with 1 MPI tasks x 2 OpenMP threads

MPI task timing breakdown:
Section |  min time  |  avg time  |  max time  |%varavg| %total
---------------------------------------------------------------
Pair    | 1033.2     | 1033.2     | 1033.2     |   0.0 | 91.27
Neigh   | 45.279     | 45.279     | 45.279     |   0.0 |  4.00
Comm    | 7.8928     | 7.8928     | 7.8928     |   0.0 |  0.70
Output  | 0.000295   | 0.000295   | 0.000295   |   0.0 |  0.00
Modify  | 41.424     | 41.424     | 41.424     |   0.0 |  3.66
Other   |            | 4.278      |            |       |  0.38

Nlocal:          10976 ave       10976 max       10976 min
Histogram: 1 0 0 0 0 0 0 0 0 0
Nghost:          10461 ave       10461 max       10461 min
Histogram: 1 0 0 0 0 0 0 0 0 0
Neighs:         422264 ave      422264 max      422264 min
Histogram: 1 0 0 0 0 0 0 0 0 0

Total # of neighbors = 422264
Ave neighs/atom = 38.471574
Neighbor list builds = 6771
Dangerous builds = 0
unfix		2

#Se colecta estadistica
print	  	"Stats collecting starts"
Stats collecting starts
fix		3 all npt temp ${newtemp2} ${newtemp2} 0.1 iso 0.0 0.0 1.0
fix		3 all npt temp 650 ${newtemp2} 0.1 iso 0.0 0.0 1.0
fix		3 all npt temp 650 650 0.1 iso 0.0 0.0 1.0
dump            3 all custom ${ndump} dump.${newtemp2} id type x y z c_peratom fx fy fz
dump            3 all custom 5000 dump.${newtemp2} id type x y z c_peratom fx fy fz
dump            3 all custom 5000 dump.650 id type x y z c_peratom fx fy fz
dump_modify   	3 element Au Pd
run		${nstat}
run		100000
Last active /omp style is pair_style eam/fs/omp
Per MPI rank memory allocation (min/avg/max) = 12.27 | 12.27 | 12.27 Mbytes
   Step          Temp          PotEng    
    300000   653.90287     -42443.653    
    310000   638.64301     -42439.657    
    320000   647.75954     -42443.894    
    330000   652.33613     -42440.655    
    340000   648.79781     -42450.964    
    350000   647.0992      -42439.127    
    360000   656.29474     -42461.258    
    370000   648.3297      -42440.221    
    380000   650.86688     -42445.901    
    390000   643.9837      -42438.482    
    400000   657.61689     -42441.031    
Loop time of 1079.72 on 2 procs for 100000 steps with 10976 atoms

Performance: 8.002 ns/day, 2.999 hours/ns, 92.617 timesteps/s, 1.017 Matom-step/s
12.4% CPU use with 1 MPI tasks x 2 OpenMP threads

MPI task timing breakdown:
Section |  min time  |  avg time  |  max time  |%varavg| %total
---------------------------------------------------------------
Pair    | 977.23     | 977.23     | 977.23     |   0.0 | 90.51
Neigh   | 44.905     | 44.905     | 44.905     |   0.0 |  4.16
Comm    | 7.372      | 7.372      | 7.372      |   0.0 |  0.68
Output  | 0.67991    | 0.67991    | 0.67991    |   0.0 |  0.06
Modify  | 45.301     | 45.301     | 45.301     |   0.0 |  4.20
Other   |            | 4.23       |            |       |  0.39

Nlocal:          10976 ave       10976 max       10976 min
Histogram: 1 0 0 0 0 0 0 0 0 0
Nghost:          10461 ave       10461 max       10461 min
Histogram: 1 0 0 0 0 0 0 0 0 0
Neighs:         422219 ave      422219 max      422219 min
Histogram: 1 0 0 0 0 0 0 0 0 0

Total # of neighbors = 422219
Ave neighs/atom = 38.467474
Neighbor list builds = 6756
Dangerous builds = 0
unfix		3
undump		3

#if "${newtemp2} > ${tempa}" then "jump SELF break"
next a
jump SELF loop
variable	a loop ${n1}
variable	a loop 13
variable	newtemp1 equal (v_a-1)*50+v_temp1
variable	newtemp2 equal v_newtemp1+50

#Rampa de T
print	  	"Temperature ramp starts"
Temperature ramp starts
fix             1 all npt temp ${newtemp1} ${newtemp2} 0.1 iso 0.0 0.0 1.0
fix             1 all npt temp 650 ${newtemp2} 0.1 iso 0.0 0.0 1.0
fix             1 all npt temp 650 700 0.1 iso 0.0 0.0 1.0
run		${nramp}
run		200000
Last active /omp style is pair_style eam/fs/omp
Per MPI rank memory allocation (min/avg/max) = 12.31 | 12.31 | 12.31 Mbytes
   Step          Temp          PotEng    
    400000   657.61689     -42441.031    
    410000   653.28729     -42454.08     
    420000   656.18822     -42441.635    
    430000   651.82206     -42436.981    
    440000   652.11878     -42419.935    
    450000   660.91741     -42431.08     
    460000   665.06439     -42417.123    
    470000   671.07478     -42422.016    
    480000   662.92978     -42421.16     
    490000   678.52478     -42412.944    
    500000   671.82225     -42408.129    
    510000   678.73014     -42410.36     
    520000   676.51859     -42387.976    
    530000   679.89813     -42385.36     
    540000   683.41367     -42390.728    
    550000   689.56363     -42374.312    
    560000   696.7519      -42359.007    
    570000   701.39225     -42373.197    
    580000   702.53141     -42361.015    
    590000   689.62882     -42368.341    
    600000   697.46691     -42368.411    
Loop time of 2179.08 on 2 procs for 200000 steps with 10976 atoms

Performance: 7.930 ns/day, 3.027 hours/ns, 91.782 timesteps/s, 1.007 Matom-step/s
12.8% CPU use with 1 MPI tasks x 2 OpenMP threads

MPI task timing breakdown:
Section |  min time  |  avg time  |  max time  |%varavg| %total
---------------------------------------------------------------
Pair    | 1981       | 1981       | 1981       |   0.0 | 90.91
Neigh   | 91.451     | 91.451     | 91.451     |   0.0 |  4.20
Comm    | 15.36      | 15.36      | 15.36      |   0.0 |  0.70
Output  | 0.000579   | 0.000579   | 0.000579   |   0.0 |  0.00
Modify  | 82.698     | 82.698     | 82.698     |   0.0 |  3.80
Other   |            | 8.53       |            |       |  0.39

Nlocal:          10976 ave       10976 max       10976 min
Histogram: 1 0 0 0 0 0 0 0 0 0
Nghost:          10461 ave       10461 max       10461 min
Histogram: 1 0 0 0 0 0 0 0 0 0
Neighs:         420677 ave      420677 max      420677 min
Histogram: 1 0 0 0 0 0 0 0 0 0

Total # of neighbors = 420677
Ave neighs/atom = 38.326986
Neighbor list builds = 13757
Dangerous builds = 0
unfix		1

#Equilibrio a nueva T
print	  	"Equilibration starts"
Equilibration starts
fix		2 all npt temp ${newtemp2} ${newtemp2} 0.1 iso 0.0 0.0 1.0
fix		2 all npt temp 700 ${newtemp2} 0.1 iso 0.0 0.0 1.0
fix		2 all npt temp 700 700 0.1 iso 0.0 0.0 1.0
run 		${nequil}
run 		100000
Last active /omp style is pair_style eam/fs/omp
Per MPI rank memory allocation (min/avg/max) = 12.31 | 12.31 | 12.31 Mbytes
   Step          Temp          PotEng    
    600000   697.46691     -42368.411    
    610000   692.89379     -42360.817    
    620000   705.04354     -42357.575    
    630000   694.62873     -42362.534    
    640000   698.43768     -42340.068    
    650000   707.17856     -42360.617    
    660000   710.82431     -42361.152    
    670000   703.44381     -42364.682    
    680000   696.10931     -42363.38     
    690000   703.10419     -42355.461    
    700000   710.34423     -42369.511    
Loop time of 1084.57 on 2 procs for 100000 steps with 10976 atoms

Performance: 7.966 ns/day, 3.013 hours/ns, 92.203 timesteps/s, 1.012 Matom-step/s
11.9% CPU use with 1 MPI tasks x 2 OpenMP threads

MPI task timing breakdown:
Section |  min time  |  avg time  |  max time  |%varavg| %total
---------------------------------------------------------------
Pair    | 985.28     | 985.28     | 985.28     |   0.0 | 90.85
Neigh   | 46.558     | 46.558     | 46.558     |   0.0 |  4.29
Comm    | 7.6272     | 7.6272     | 7.6272     |   0.0 |  0.70
Output  | 0.000313   | 0.000313   | 0.000313   |   0.0 |  0.00
Modify  | 40.852     | 40.852     | 40.852     |   0.0 |  3.77
Other   |            | 4.251      |            |       |  0.39

Nlocal:          10976 ave       10976 max       10976 min
Histogram: 1 0 0 0 0 0 0 0 0 0
Nghost:          10461 ave       10461 max       10461 min
Histogram: 1 0 0 0 0 0 0 0 0 0
Neighs:         420604 ave      420604 max      420604 min
Histogram: 1 0 0 0 0 0 0 0 0 0

Total # of neighbors = 420604
Ave neighs/atom = 38.320335
Neighbor list builds = 7014
Dangerous builds = 0
unfix		2

#Se colecta estadistica
print	  	"Stats collecting starts"
Stats collecting starts
fix		3 all npt temp ${newtemp2} ${newtemp2} 0.1 iso 0.0 0.0 1.0
fix		3 all npt temp 700 ${newtemp2} 0.1 iso 0.0 0.0 1.0
fix		3 all npt temp 700 700 0.1 iso 0.0 0.0 1.0
dump            3 all custom ${ndump} dump.${newtemp2} id type x y z c_peratom fx fy fz
dump            3 all custom 5000 dump.${newtemp2} id type x y z c_peratom fx fy fz
dump            3 all custom 5000 dump.700 id type x y z c_peratom fx fy fz
dump_modify   	3 element Au Pd
run		${nstat}
run		100000
Last active /omp style is pair_style eam/fs/omp
Per MPI rank memory allocation (min/avg/max) = 14.56 | 14.56 | 14.56 Mbytes
   Step          Temp          PotEng    
    700000   710.34423     -42369.511    
    710000   701.72768     -42360.041    
    720000   705.37903     -42363.112    
    730000   705.10183     -42374.006    
    740000   701.4514      -42354.303    
    750000   712.48091     -42381.283    
    760000   715.33183     -42355.161    
    770000   704.89065     -42345.972    
    780000   691.3807      -42348.476    
    790000   692.13015     -42362.728    
    800000   705.5472      -42364.957    
Loop time of 1956.01 on 2 procs for 100000 steps with 10976 atoms

Performance: 4.417 ns/day, 5.433 hours/ns, 51.124 timesteps/s, 561.142 katom-step/s
36.1% CPU use with 1 MPI tasks x 2 OpenMP threads

MPI task timing breakdown:
Section |  min time  |  avg time  |  max time  |%varavg| %total
---------------------------------------------------------------
Pair    | 1782.2     | 1782.2     | 1782.2     |   0.0 | 91.12
Neigh   | 65.914     | 65.914     | 65.914     |   0.0 |  3.37
Comm    | 15.12      | 15.12      | 15.12      |   0.0 |  0.77
Output  | 0.93621    | 0.93621    | 0.93621    |   0.0 |  0.05
Modify  | 84.071     | 84.071     | 84.071     |   0.0 |  4.30
Other   |            | 7.728      |            |       |  0.40

Nlocal:          10976 ave       10976 max       10976 min
Histogram: 1 0 0 0 0 0 0 0 0 0
Nghost:          10461 ave       10461 max       10461 min
Histogram: 1 0 0 0 0 0 0 0 0 0
Neighs:         420742 ave      420742 max      420742 min
Histogram: 1 0 0 0 0 0 0 0 0 0

Total # of neighbors = 420742
Ave neighs/atom = 38.332908
Neighbor list builds = 6989
Dangerous builds = 0uunfix		3
undump		3

#if "${newtemp2} > ${tempa}" then "jump SELF break"
next a
jump SELF loop
variable	a loop ${n1}
variable	a loop 13
variable	newtemp1 equal (v_a-1)*50+v_temp1
variable	newtemp2 equal v_newtemp1+50

#Rampa de T
print	  	"Temperature ramp starts"
Temperature ramp starts
fix             1 all npt temp ${newtemp1} ${newtemp2} 0.1 iso 0.0 0.0 1.0
fix             1 all npt temp 700 ${newtemp2} 0.1 iso 0.0 0.0 1.0
fix             1 all npt temp 700 750 0.1 iso 0.0 0.0 1.0
run		${nramp}
run		200000
Last active /omp style is pair_style eam/fs/omp
Per MPI rank memory allocation (min/avg/max) = 12.31 | 12.31 | 12.31 Mbytes
   Step          Temp          PotEng    
    800000   705.5472      -42364.957    
    810000   702.39508     -42355.954    
    820000   711.09893     -42362.42     
    830000   710.28759     -42334.345    
    840000   713.37065     -42332.124    
    850000   713.22677     -42327.613    
    860000   717.36383     -42337.917    
    870000   718.00302     -42333.787    
    880000   723.00152     -42327.533    
    890000   719.3211      -42309.13     
    900000   733.96366     -42293.863    
    910000   728.27991     -42288.735    
    920000   736.37685     -42301.741    
    930000   731.91934     -42295.071    
    940000   730.36174     -42287.099    
    950000   738.4349      -42298.166    
    960000   732.5605      -42282.96     
    970000   752.31996     -42278.204    
    980000   749.90673     -42270.907    
    990000   745.489       -42268.315    
   1000000   743.53759     -42260.225    
Loop time of 2692.61 on 2 procs for 200000 steps with 10976 atoms

Performance: 6.418 ns/day, 3.740 hours/ns, 74.277 timesteps/s, 815.268 katom-step/s
27.1% CPU use with 1 MPI tasks x 2 OpenMP threads

MPI task timing breakdown:
Section |  min time  |  avg time  |  max time  |%varavg| %total
---------------------------------------------------------------
Pair    | 2458.9     | 2458.9     | 2458.9     |   0.0 | 91.32
Neigh   | 105.32     | 105.32     | 105.32     |   0.0 |  3.91
Comm    | 20.287     | 20.287     | 20.287     |   0.0 |  0.75
Output  | 0.000628   | 0.000628   | 0.000628   |   0.0 |  0.00
Modify  | 97.388     | 97.388     | 97.388     |   0.0 |  3.62
Other   |            | 10.67      |            |       |  0.40

Nlocal:          10976 ave       10976 max       10976 min
Histogram: 1 0 0 0 0 0 0 0 0 0
Nghost:          10461 ave       10461 max       10461 min
Histogram: 1 0 0 0 0 0 0 0 0 0
Neighs:         417956 ave      417956 max      417956 min
Histogram: 1 0 0 0 0 0 0 0 0 0

Total # of neighbors = 417956
Ave neighs/atom = 38.079082
Neighbor list builds = 14240
Dangerous builds = 0uunfix		1

#Equilibrio a nueva T
print	  	"Equilibration starts"
Equilibration starts
fix		2 all npt temp ${newtemp2} ${newtemp2} 0.1 iso 0.0 0.0 1.0
fix		2 all npt temp 750 ${newtemp2} 0.1 iso 0.0 0.0 1.0
fix		2 all npt temp 750 750 0.1 iso 0.0 0.0 1.0
run 		${nequil}
run 		100000
Last active /omp style is pair_style eam/fs/omp
Per MPI rank memory allocation (min/avg/max) = 12.31 | 12.31 | 12.31 Mbytes
   Step          Temp          PotEng    
   1000000   743.53759     -42260.225    
   1010000   747.52615     -42297.065    
   1020000   748.31635     -42270.073    
   1030000   750.40181     -42268.408    
   1040000   739.93571     -42262.376    
   1050000   755.57613     -42276.462    
   1060000   744.3784      -42263.404    
   1070000   752.94502     -42285.764    
   1080000   761.68064     -42262.623    
   1090000   747.8861      -42272.978    
   1100000   751.73945     -42261.502    
Loop time of 1100.03 on 2 procs for 100000 steps with 10976 atoms

Performance: 7.854 ns/day, 3.056 hours/ns, 90.907 timesteps/s, 997.793 katom-step/s
12.0% CPU use with 1 MPI tasks x 2 OpenMP threads

MPI task timing breakdown:
Section |  min time  |  avg time  |  max time  |%varavg| %total
---------------------------------------------------------------
Pair    | 998.56     | 998.56     | 998.56     |   0.0 | 90.78
Neigh   | 48.297     | 48.297     | 48.297     |   0.0 |  4.39
Comm    | 7.9579     | 7.9579     | 7.9579     |   0.0 |  0.72
Output  | 0.000321   | 0.000321   | 0.000321   |   0.0 |  0.00
Modify  | 40.876     | 40.876     | 40.876     |   0.0 |  3.72
Other   |            | 4.338      |            |       |  0.39

Nlocal:          10976 ave       10976 max       10976 min
Histogram: 1 0 0 0 0 0 0 0 0 0
Nghost:          10461 ave       10461 max       10461 min
Histogram: 1 0 0 0 0 0 0 0 0 0
Neighs:         418519 ave      418519 max      418519 min
Histogram: 1 0 0 0 0 0 0 0 0 0

Total # of neighbors = 418519
Ave neighs/atom = 38.130375
Neighbor list builds = 7227
Dangerous builds = 0uunfix		2

#Se colecta estadistica
print	  	"Stats collecting starts"
Stats collecting starts
fix		3 all npt temp ${newtemp2} ${newtemp2} 0.1 iso 0.0 0.0 1.0
fix		3 all npt temp 750 ${newtemp2} 0.1 iso 0.0 0.0 1.0
fix		3 all npt temp 750 750 0.1 iso 0.0 0.0 1.0
dump            3 all custom ${ndump} dump.${newtemp2} id type x y z c_peratom fx fy fz
dump            3 all custom 5000 dump.${newtemp2} id type x y z c_peratom fx fy fz
dump            3 all custom 5000 dump.750 id type x y z c_peratom fx fy fz
dump_modify   	3 element Au Pd
run		${nstat}
run		100000
Last active /omp style is pair_style eam/fs/omp
Per MPI rank memory allocation (min/avg/max) = 14.56 | 14.56 | 14.56 Mbytes
   Step          Temp          PotEng    
   1100000   751.73945     -42261.502    
   1110000   746.91804     -42262.186    
   1120000   753.47169     -42269.868    
   1130000   742.13399     -42275.921    
   1140000   750.74071     -42272.073    
   1150000   742.61412     -42280.547    
   1160000   745.78999     -42275.699    
   1170000   759.03044     -42268.651    
   1180000   751.62608     -42271.475    
   1190000   746.40464     -42262.533    
   1200000   762.56932     -42269.721    
Loop time of 1109.63 on 2 procs for 100000 steps with 10976 atoms

Performance: 7.786 ns/day, 3.082 hours/ns, 90.120 timesteps/s, 989.162 katom-step/s
12.7% CPU use with 1 MPI tasks x 2 OpenMP threads

MPI task timing breakdown:
Section |  min time  |  avg time  |  max time  |%varavg| %total
---------------------------------------------------------------
Pair    | 1002.7     | 1002.7     | 1002.7     |   0.0 | 90.36
Neigh   | 48.184     | 48.184     | 48.184     |   0.0 |  4.34
Comm    | 7.8392     | 7.8392     | 7.8392     |   0.0 |  0.71
Output  | 0.66108    | 0.66108    | 0.66108    |   0.0 |  0.06
Modify  | 45.963     | 45.963     | 45.963     |   0.0 |  4.14
Other   |            | 4.325      |            |       |  0.39

Nlocal:          10976 ave       10976 max       10976 min
Histogram: 1 0 0 0 0 0 0 0 0 0
Nghost:          10460 ave       10460 max       10460 min
Histogram: 1 0 0 0 0 0 0 0 0 0
Neighs:         418391 ave      418391 max      418391 min
Histogram: 1 0 0 0 0 0 0 0 0 0

Total # of neighbors = 418391
Ave neighs/atom = 38.118714
Neighbor list builds = 7240
Dangerous builds = 0uunfix		3
undump		3

#if "${newtemp2} > ${tempa}" then "jump SELF break"
next a
jump SELF loop
variable	a loop ${n1}
variable	a loop 13
variable	newtemp1 equal (v_a-1)*50+v_temp1
variable	newtemp2 equal v_newtemp1+50

#Rampa de T
print	  	"Temperature ramp starts"
Temperature ramp starts
fix             1 all npt temp ${newtemp1} ${newtemp2} 0.1 iso 0.0 0.0 1.0
fix             1 all npt temp 750 ${newtemp2} 0.1 iso 0.0 0.0 1.0
fix             1 all npt temp 750 800 0.1 iso 0.0 0.0 1.0
run		${nramp}
run		200000
Last active /omp style is pair_style eam/fs/omp
Per MPI rank memory allocation (min/avg/max) = 12.31 | 12.31 | 12.31 Mbytes
   Step          Temp          PotEng    
   1200000   762.56932     -42269.721    
   1210000   745.88277     -42271.958    
   1220000   752.87093     -42264.97     
   1230000   755.88517     -42240.858    
   1240000   755.97285     -42266.122    
   1250000   758.7868      -42259.029    
   1260000   779.58548     -42258.135    
   1270000   775.08631     -42227.309    
   1280000   774.78585     -42216.793    
   1290000   783.47482     -42241.045    
   1300000   775.64555     -42231.59     
   1310000   772.91151     -42205.263    
   1320000   788.57614     -42219.24     
   1330000   783.33942     -42200.779    
   1340000   776.39749     -42203.108    
   1350000   785.41402     -42207.155    
   1360000   794.77589     -42214.001    
   1370000   794.68972     -42210.389    
   1380000   802.05822     -42189.811    
   1390000   806.726       -42198.971    
   1400000   798.82011     -42170.753    
Loop time of 2136.67 on 2 procs for 200000 steps with 10976 atoms

Performance: 8.087 ns/day, 2.968 hours/ns, 93.604 timesteps/s, 1.027 Matom-step/s
12.2% CPU use with 1 MPI tasks x 2 OpenMP threads

MPI task timing breakdown:
Section |  min time  |  avg time  |  max time  |%varavg| %total
---------------------------------------------------------------
Pair    | 1935       | 1935       | 1935       |   0.0 | 90.56
Neigh   | 97.197     | 97.197     | 97.197     |   0.0 |  4.55
Comm    | 15.2       | 15.2       | 15.2       |   0.0 |  0.71
Output  | 0.000574   | 0.000574   | 0.000574   |   0.0 |  0.00
Modify  | 80.612     | 80.612     | 80.612     |   0.0 |  3.77
Other   |            | 8.629      |            |       |  0.40

Nlocal:          10976 ave       10976 max       10976 min
Histogram: 1 0 0 0 0 0 0 0 0 0
Nghost:          10458 ave       10458 max       10458 min
Histogram: 1 0 0 0 0 0 0 0 0 0
Neighs:         416746 ave      416746 max      416746 min
Histogram: 1 0 0 0 0 0 0 0 0 0

Total # of neighbors = 416746
Ave neighs/atom = 37.968841
Neighbor list builds = 14684
Dangerous builds = 0uunfix		1

#Equilibrio a nueva T
print	  	"Equilibration starts"
Equilibration starts
fix		2 all npt temp ${newtemp2} ${newtemp2} 0.1 iso 0.0 0.0 1.0
fix		2 all npt temp 800 ${newtemp2} 0.1 iso 0.0 0.0 1.0
fix		2 all npt temp 800 800 0.1 iso 0.0 0.0 1.0
run 		${nequil}
run 		100000
Last active /omp style is pair_style eam/fs/omp
Per MPI rank memory allocation (min/avg/max) = 12.31 | 12.31 | 12.31 Mbytes
   Step          Temp          PotEng    
   1400000   798.82011     -42170.753    
   1410000   795.87812     -42179.303    
   1420000   805.50776     -42163.144    
   1430000   794.6718      -42177.567    
   1440000   805.27868     -42172.903    
   1450000   802.67748     -42170.481    
   1460000   803.79331     -42162.128    
   1470000   804.59601     -42173.634    
   1480000   789.02037     -42196.738    
   1490000   802.62908     -42166.831    
   1500000   791.19752     -42187.812    
Loop time of 1064.64 on 2 procs for 100000 steps with 10976 atoms

Performance: 8.115 ns/day, 2.957 hours/ns, 93.928 timesteps/s, 1.031 Matom-step/s
12.2% CPU use with 1 MPI tasks x 2 OpenMP threads

MPI task timing breakdown:
Section |  min time  |  avg time  |  max time  |%varavg| %total
---------------------------------------------------------------
Pair    | 962.85     | 962.85     | 962.85     |   0.0 | 90.44
Neigh   | 49.584     | 49.584     | 49.584     |   0.0 |  4.66
Comm    | 7.6077     | 7.6077     | 7.6077     |   0.0 |  0.71
Output  | 0.000289   | 0.000289   | 0.000289   |   0.0 |  0.00
Modify  | 40.298     | 40.298     | 40.298     |   0.0 |  3.79
Other   |            | 4.302      |            |       |  0.40

Nlocal:          10976 ave       10976 max       10976 min
Histogram: 1 0 0 0 0 0 0 0 0 0
Nghost:          10460 ave       10460 max       10460 min
Histogram: 1 0 0 0 0 0 0 0 0 0
Neighs:         416504 ave      416504 max      416504 min
Histogram: 1 0 0 0 0 0 0 0 0 0

Total # of neighbors = 416504
Ave neighs/atom = 37.946793
Neighbor list builds = 7470
Dangerous builds = 0uunfix		2

#Se colecta estadistica
print	  	"Stats collecting starts"
Stats collecting starts
fix		3 all npt temp ${newtemp2} ${newtemp2} 0.1 iso 0.0 0.0 1.0
fix		3 all npt temp 800 ${newtemp2} 0.1 iso 0.0 0.0 1.0
fix		3 all npt temp 800 800 0.1 iso 0.0 0.0 1.0
dump            3 all custom ${ndump} dump.${newtemp2} id type x y z c_peratom fx fy fz
dump            3 all custom 5000 dump.${newtemp2} id type x y z c_peratom fx fy fz
dump            3 all custom 5000 dump.800 id type x y z c_peratom fx fy fz
dump_modify   	3 element Au Pd
run		${nstat}
run		100000
Last active /omp style is pair_style eam/fs/omp
Per MPI rank memory allocation (min/avg/max) = 14.56 | 14.56 | 14.56 Mbytes
   Step          Temp          PotEng    
   1500000   791.19752     -42187.812    
   1510000   804.32731     -42177.857    
   1520000   789.39503     -42185.163    
   1530000   787.63851     -42177.012    
   1540000   809.19906     -42176.195    
   1550000   806.13322     -42177.471    
   1560000   797.87001     -42185.876    
   1570000   803.36981     -42183.846    
   1580000   799.13736     -42166.697    
   1590000   808.13526     -42184.296    
   1600000   800.17578     -42194.183    
Loop time of 1066.45 on 2 procs for 100000 steps with 10976 atoms

Performance: 8.102 ns/day, 2.962 hours/ns, 93.769 timesteps/s, 1.029 Matom-step/s
12.1% CPU use with 1 MPI tasks x 2 OpenMP threads

MPI task timing breakdown:
Section |  min time  |  avg time  |  max time  |%varavg| %total
---------------------------------------------------------------
Pair    | 958.87     | 958.87     | 958.87     |   0.0 | 89.91
Neigh   | 49.765     | 49.765     | 49.765     |   0.0 |  4.67
Comm    | 7.6221     | 7.6221     | 7.6221     |   0.0 |  0.71
Output  | 0.67385    | 0.67385    | 0.67385    |   0.0 |  0.06
Modify  | 45.161     | 45.161     | 45.161     |   0.0 |  4.23
Other   |            | 4.363      |            |       |  0.41

Nlocal:          10976 ave       10976 max       10976 min
Histogram: 1 0 0 0 0 0 0 0 0 0
Nghost:          10461 ave       10461 max       10461 min
Histogram: 1 0 0 0 0 0 0 0 0 0
Neighs:         417196 ave      417196 max      417196 min
Histogram: 1 0 0 0 0 0 0 0 0 0

Total # of neighbors = 417196
Ave neighs/atom = 38.00984
Neighbor list builds = 7458
Dangerous builds = 0ununfix		3
undump		3

#if "${newtemp2} > ${tempa}" then "jump SELF break"
next a
jump SELF loop
variable	a loop ${n1}
variable	a loop 13
variable	newtemp1 equal (v_a-1)*50+v_temp1
variable	newtemp2 equal v_newtemp1+50

#Rampa de T
print	  	"Temperature ramp starts"
Temperature ramp starts
fix             1 all npt temp ${newtemp1} ${newtemp2} 0.1 iso 0.0 0.0 1.0
fix             1 all npt temp 800 ${newtemp2} 0.1 iso 0.0 0.0 1.0
fix             1 all npt temp 800 850 0.1 iso 0.0 0.0 1.0
run		${nramp}
run		200000
Last active /omp style is pair_style eam/fs/omp
Per MPI rank memory allocation (min/avg/max) = 12.31 | 12.31 | 12.31 Mbytes
   Step          Temp          PotEng    
   1600000   800.17578     -42194.183    
   1610000   814.69533     -42164.253    
   1620000   826.93848     -42180.817    
   1630000   814.30744     -42163.703    
   1640000   807.22186     -42182.812    
   1650000   810.65652     -42183.953    
   1660000   823.15235     -42137.643    
   1670000   798.93969     -42150.797    
   1680000   828.73124     -42157.71     
   1690000   829.62883     -42141.858    
   1700000   829.86951     -42128.569    
   1710000   815.89776     -42135.569    
   1720000   830.1988      -42122.903    
   1730000   826.90584     -42128.254    
   1740000   835.61937     -42112.365    
   1750000   843.6207      -42113.331    
   1760000   834.0118      -42097.95     
   1770000   830.13459     -42099.693    
   1780000   852.0198      -42111.928    
   1790000   852.39476     -42093.858    
   1800000   838.76555     -42072.699    
Loop time of 2159.17 on 2 procs for 200000 steps with 10976 atoms

Performance: 8.003 ns/day, 2.999 hours/ns, 92.628 timesteps/s, 1.017 Matom-step/s
12.4% CPU use with 1 MPI tasks x 2 OpenMP threads

MPI task timing breakdown:
Section |  min time  |  avg time  |  max time  |%varavg| %total
---------------------------------------------------------------
Pair    | 1953.2     | 1953.2     | 1953.2     |   0.0 | 90.46
Neigh   | 100.85     | 100.85     | 100.85     |   0.0 |  4.67
Comm    | 15.446     | 15.446     | 15.446     |   0.0 |  0.72
Output  | 0.000581   | 0.000581   | 0.000581   |   0.0 |  0.00
Modify  | 80.995     | 80.995     | 80.995     |   0.0 |  3.75
Other   |            | 8.7        |            |       |  0.40

Nlocal:          10976 ave       10976 max       10976 min
Histogram: 1 0 0 0 0 0 0 0 0 0
Nghost:          10458 ave       10458 max       10458 min
Histogram: 1 0 0 0 0 0 0 0 0 0
Neighs:         413701 ave      413701 max      413701 min
Histogram: 1 0 0 0 0 0 0 0 0 0

Total # of neighbors = 413701
Ave neighs/atom = 37.691418
Neighbor list builds = 15199
Dangerous builds = 0ununfix		1

#Equilibrio a nueva T
print	  	"Equilibration starts"
Equilibration starts
fix		2 all npt temp ${newtemp2} ${newtemp2} 0.1 iso 0.0 0.0 1.0
fix		2 all npt temp 850 ${newtemp2} 0.1 iso 0.0 0.0 1.0
fix		2 all npt temp 850 850 0.1 iso 0.0 0.0 1.0
run 		${nequil}
run 		100000
Last active /omp style is pair_style eam/fs/omp
Per MPI rank memory allocation (min/avg/max) = 12.31 | 12.31 | 12.31 Mbytes
   Step          Temp          PotEng    
   1800000   838.76555     -42072.699    
   1810000   850.0184      -42073.343    
   1820000   853.39458     -42084.509    
   1830000   845.8792      -42098.457    
   1840000   849.90159     -42078.129    
   1850000   832.30609     -42086.222    
   1860000   844.73861     -42084.605    
   1870000   858.5938      -42089.884    
   1880000   839.07767     -42091.736    
   1890000   846.3861      -42077.251    
   1900000   838.74788     -42102.129    
Loop time of 1081.21 on 2 procs for 100000 steps with 10976 atoms

Performance: 7.991 ns/day, 3.003 hours/ns, 92.489 timesteps/s, 1.015 Matom-step/s
12.5% CPU use with 1 MPI tasks x 2 OpenMP threads

MPI task timing breakdown:
Section |  min time  |  avg time  |  max time  |%varavg| %total
---------------------------------------------------------------
Pair    | 977.38     | 977.38     | 977.38     |   0.0 | 90.40
Neigh   | 50.981     | 50.981     | 50.981     |   0.0 |  4.72
Comm    | 7.796      | 7.796      | 7.796      |   0.0 |  0.72
Output  | 0.000289   | 0.000289   | 0.000289   |   0.0 |  0.00
Modify  | 40.724     | 40.724     | 40.724     |   0.0 |  3.77
Other   |            | 4.327      |            |       |  0.40

Nlocal:          10976 ave       10976 max       10976 min
Histogram: 1 0 0 0 0 0 0 0 0 0
Nghost:          10459 ave       10459 max       10459 min
Histogram: 1 0 0 0 0 0 0 0 0 0
Neighs:         414666 ave      414666 max      414666 min
Histogram: 1 0 0 0 0 0 0 0 0 0

Total # of neighbors = 414666
Ave neighs/atom = 37.779337
Neighbor list builds = 7661
Dangerous builds = 0ununfix		2

#Se colecta estadistica
print	  	"Stats collecting starts"
Stats collecting starts
fix		3 all npt temp ${newtemp2} ${newtemp2} 0.1 iso 0.0 0.0 1.0
fix		3 all npt temp 850 ${newtemp2} 0.1 iso 0.0 0.0 1.0
fix		3 all npt temp 850 850 0.1 iso 0.0 0.0 1.0
dump            3 all custom ${ndump} dump.${newtemp2} id type x y z c_peratom fx fy fz
dump            3 all custom 5000 dump.${newtemp2} id type x y z c_peratom fx fy fz
dump            3 all custom 5000 dump.850 id type x y z c_peratom fx fy fz
dump_modify   	3 element Au Pd
run		${nstat}
run		100000
Last active /omp style is pair_style eam/fs/omp
Per MPI rank memory allocation (min/avg/max) = 14.56 | 14.56 | 14.56 Mbytes
   Step          Temp          PotEng    
   1900000   838.74788     -42102.129    
   1910000   847.14384     -42079.745    
   1920000   848.25332     -42116.109    
   1930000   840.30555     -42086.117    
   1940000   851.41483     -42097.187    
   1950000   844.13831     -42108.718    
   1960000   844.62663     -42089.201    
   1970000   848.02377     -42075.102    
   1980000   854.08643     -42112.037    
   1990000   851.01881     -42085.936    
   2000000   849.40999     -42078.433    
Loop time of 1069.85 on 2 procs for 100000 steps with 10976 atoms

Performance: 8.076 ns/day, 2.972 hours/ns, 93.471 timesteps/s, 1.026 Matom-step/s
13.0% CPU use with 1 MPI tasks x 2 OpenMP threads

MPI task timing breakdown:
Section |  min time  |  avg time  |  max time  |%varavg| %total
---------------------------------------------------------------
Pair    | 961.13     | 961.13     | 961.13     |   0.0 | 89.84
Neigh   | 50.949     | 50.949     | 50.949     |   0.0 |  4.76
Comm    | 7.6629     | 7.6629     | 7.6629     |   0.0 |  0.72
Output  | 0.70002    | 0.70002    | 0.70002    |   0.0 |  0.07
Modify  | 45.086     | 45.086     | 45.086     |   0.0 |  4.21
Other   |            | 4.325      |            |       |  0.40

Nlocal:          10976 ave       10976 max       10976 min
Histogram: 1 0 0 0 0 0 0 0 0 0
Nghost:          10460 ave       10460 max       10460 min
Histogram: 1 0 0 0 0 0 0 0 0 0
Neighs:         413743 ave      413743 max      413743 min
Histogram: 1 0 0 0 0 0 0 0 0 0

Total # of neighbors = 413743
Ave neighs/atom = 37.695244
Neighbor list builds = 7695
Dangerous builds = 0ununfix		3
undump		3

#if "${newtemp2} > ${tempa}" then "jump SELF break"
next a
jump SELF loop
variable	a loop ${n1}
variable	a loop 13
variable	newtemp1 equal (v_a-1)*50+v_temp1
variable	newtemp2 equal v_newtemp1+50

#Rampa de T
print	  	"Temperature ramp starts"
Temperature ramp starts
fix             1 all npt temp ${newtemp1} ${newtemp2} 0.1 iso 0.0 0.0 1.0
fix             1 all npt temp 850 ${newtemp2} 0.1 iso 0.0 0.0 1.0
fix             1 all npt temp 850 900 0.1 iso 0.0 0.0 1.0
run		${nramp}
run		200000
Last active /omp style is pair_style eam/fs/omp
Per MPI rank memory allocation (min/avg/max) = 12.31 | 12.31 | 12.31 Mbytes
   Step          Temp          PotEng    
   2000000   849.40999     -42078.433    
   2010000   853.26458     -42086.026    
   2020000   853.4553      -42084.89     
   2030000   861.45553     -42070.536    
   2040000   856.02032     -42078.327    
   2050000   865.25603     -42078.572    
   2060000   879.95518     -42061.2      
   2070000   861.13488     -42041.527    
   2080000   870.97436     -42050.301    
   2090000   874.71713     -42049.301    
   2100000   869.98438     -42033.616    
   2110000   863.82693     -42028.677    
   2120000   874.87849     -42050.752    
   2130000   885.87881     -42029.769    
   2140000   879.4354      -42010.626    
   2150000   887.83704     -42013.107    
   2160000   881.20394     -41995.182    
   2170000   878.0267      -42002.133    
   2180000   895.5637      -41999.824    
   2190000   898.50561     -41992.339    
   2200000   894.48909     -41994.839    
Loop time of 2101.34 on 2 procs for 200000 steps with 10976 atoms

Performance: 8.223 ns/day, 2.919 hours/ns, 95.177 timesteps/s, 1.045 Matom-step/s
12.5% CPU use with 1 MPI tasks x 2 OpenMP threads

MPI task timing breakdown:
Section |  min time  |  avg time  |  max time  |%varavg| %total
---------------------------------------------------------------
Pair    | 1894.8     | 1894.8     | 1894.8     |   0.0 | 90.17
Neigh   | 103.08     | 103.08     | 103.08     |   0.0 |  4.91
Comm    | 15.323     | 15.323     | 15.323     |   0.0 |  0.73
Output  | 0.000576   | 0.000576   | 0.000576   |   0.0 |  0.00
Modify  | 79.462     | 79.462     | 79.462     |   0.0 |  3.78
Other   |            | 8.722      |            |       |  0.42

Nlocal:          10976 ave       10976 max       10976 min
Histogram: 1 0 0 0 0 0 0 0 0 0
Nghost:          10460 ave       10460 max       10460 min
Histogram: 1 0 0 0 0 0 0 0 0 0
Neighs:         412057 ave      412057 max      412057 min
Histogram: 1 0 0 0 0 0 0 0 0 0

Total # of neighbors = 412057
Ave neighs/atom = 37.541636
Neighbor list builds = 15587
Dangerous builds = 0ununfix		1

#Equilibrio a nueva T
print	  	"Equilibration starts"
Equilibration starts
fix		2 all npt temp ${newtemp2} ${newtemp2} 0.1 iso 0.0 0.0 1.0
fix		2 all npt temp 900 ${newtemp2} 0.1 iso 0.0 0.0 1.0
fix		2 all npt temp 900 900 0.1 iso 0.0 0.0 1.0
run 		${nequil}
run 		100000
Last active /omp style is pair_style eam/fs/omp
Per MPI rank memory allocation (min/avg/max) = 12.31 | 12.31 | 12.31 Mbytes
   Step          Temp          PotEng    
   2200000   894.48909     -41994.839    
   2210000   897.4731      -42021.674    
   2220000   898.52215     -41972.912    
   2230000   906.67556     -41990.066    
   2240000   902.44328     -41984.663    
   2250000   904.63267     -41991.746    
   2260000   887.88339     -42002.488    
   2270000   913.2184      -41984.855    
   2280000   905.57283     -41990.807    
   2290000   901.25387     -42016.688    
   2300000   903.32237     -41990.574    
Loop time of 1098 on 2 procs for 100000 steps with 10976 atoms

Performance: 7.869 ns/day, 3.050 hours/ns, 91.074 timesteps/s, 999.632 katom-step/s
13.2% CPU use with 1 MPI tasks x 2 OpenMP threads

MPI task timing breakdown:
Section |  min time  |  avg time  |  max time  |%varavg| %total
---------------------------------------------------------------
Pair    | 992.37     | 992.37     | 992.37     |   0.0 | 90.38
Neigh   | 52.493     | 52.493     | 52.493     |   0.0 |  4.78
Comm    | 7.9716     | 7.9716     | 7.9716     |   0.0 |  0.73
Output  | 0.000292   | 0.000292   | 0.000292   |   0.0 |  0.00
Modify  | 40.868     | 40.868     | 40.868     |   0.0 |  3.72
Other   |            | 4.304      |            |       |  0.39

Nlocal:          10976 ave       10976 max       10976 min
Histogram: 1 0 0 0 0 0 0 0 0 0
Nghost:          10453 ave       10453 max       10453 min
Histogram: 1 0 0 0 0 0 0 0 0 0
Neighs:         412395 ave      412395 max      412395 min
Histogram: 1 0 0 0 0 0 0 0 0 0

Total # of neighbors = 412395
Ave neighs/atom = 37.572431
Neighbor list builds = 7887
Dangerous builds = 0
unfix		2

#Se colecta estadistica
print	  	"Stats collecting starts"
Stats collecting starts
fix		3 all npt temp ${newtemp2} ${newtemp2} 0.1 iso 0.0 0.0 1.0
fix		3 all npt temp 900 ${newtemp2} 0.1 iso 0.0 0.0 1.0
fix		3 all npt temp 900 900 0.1 iso 0.0 0.0 1.0
dump            3 all custom ${ndump} dump.${newtemp2} id type x y z c_peratom fx fy fz
dump            3 all custom 5000 dump.${newtemp2} id type x y z c_peratom fx fy fz
dump            3 all custom 5000 dump.900 id type x y z c_peratom fx fy fz
dump_modify   	3 element Au Pd
run		${nstat}
run		100000
Last active /omp style is pair_style eam/fs/omp
Per MPI rank memory allocation (min/avg/max) = 14.56 | 14.56 | 14.56 Mbytes
   Step          Temp          PotEng    
   2300000   903.32237     -41990.574    
   2310000   895.99027     -42008.092    
   2320000   903.52743     -42000.715    
   2330000   884.88887     -41971.044    
   2340000   903.6908      -41981.613    
   2350000   904.87209     -41987.341    
   2360000   899.17784     -41982.293    
   2370000   904.09359     -41971.667    
   2380000   916.98373     -41981.126    
   2390000   909.97627     -41983.228    
   2400000   899.94371     -41973.441    
Loop time of 1100.41 on 2 procs for 100000 steps with 10976 atoms

Performance: 7.852 ns/day, 3.057 hours/ns, 90.875 timesteps/s, 997.443 katom-step/s
12.8% CPU use with 1 MPI tasks x 2 OpenMP threads

MPI task timing breakdown:
Section |  min time  |  avg time  |  max time  |%varavg| %total
---------------------------------------------------------------
Pair    | 989.63     | 989.63     | 989.63     |   0.0 | 89.93
Neigh   | 52.34      | 52.34      | 52.34      |   0.0 |  4.76
Comm    | 7.8313     | 7.8313     | 7.8313     |   0.0 |  0.71
Output  | 0.66068    | 0.66068    | 0.66068    |   0.0 |  0.06
Modify  | 45.664     | 45.664     | 45.664     |   0.0 |  4.15
Other   |            | 4.29       |            |       |  0.39

Nlocal:          10976 ave       10976 max       10976 min
Histogram: 1 0 0 0 0 0 0 0 0 0
Nghost:          10458 ave       10458 max       10458 min
Histogram: 1 0 0 0 0 0 0 0 0 0
Neighs:         411479 ave      411479 max      411479 min
Histogram: 1 0 0 0 0 0 0 0 0 0

Total # of neighbors = 411479
Ave neighs/atom = 37.488976
Neighbor list builds = 7883
Dangerous builds = 0
unfix		3
undump		3

#if "${newtemp2} > ${tempa}" then "jump SELF break"
next a
jump SELF loop
variable	a loop ${n1}
variable	a loop 13
variable	newtemp1 equal (v_a-1)*50+v_temp1
variable	newtemp2 equal v_newtemp1+50

#Rampa de T
print	  	"Temperature ramp starts"
Temperature ramp starts
fix             1 all npt temp ${newtemp1} ${newtemp2} 0.1 iso 0.0 0.0 1.0
fix             1 all npt temp 900 ${newtemp2} 0.1 iso 0.0 0.0 1.0
fix             1 all npt temp 900 950 0.1 iso 0.0 0.0 1.0
run		${nramp}
run		200000
Last active /omp style is pair_style eam/fs/omp
Per MPI rank memory allocation (min/avg/max) = 12.31 | 12.31 | 12.31 Mbytes
   Step          Temp          PotEng    
   2400000   899.94371     -41973.441    
   2410000   889.58265     -41973.74     
   2420000   908.05561     -41977.391    
   2430000   914.48637     -42014.057    
   2440000   924.45555     -41977.82     
   2450000   906.30374     -41976.442    
   2460000   912.50095     -41963.608    
   2470000   919.81998     -41968.234    
   2480000   906.87363     -41946.234    
   2490000   926.49112     -41936.119    
   2500000   915.88929     -41954.156    
   2510000   922.86864     -41917.6      
   2520000   929.77419     -41921.428    
   2530000   932.59238     -41920.814    
   2540000   937.79192     -41929.064    
   2550000   941.75417     -41945.71     
   2560000   937.83944     -41898.867    
   2570000   949.85848     -41908.673    
   2580000   929.90588     -41910.902    
   2590000   940.34928     -41909.579    
   2600000   951.86342     -41887.955    
Loop time of 2111.46 on 2 procs for 200000 steps with 10976 atoms

Performance: 8.184 ns/day, 2.933 hours/ns, 94.721 timesteps/s, 1.040 Matom-step/s
12.5% CPU use with 1 MPI tasks x 2 OpenMP threads

MPI task timing breakdown:
Section |  min time  |  avg time  |  max time  |%varavg| %total
---------------------------------------------------------------
Pair    | 1902.1     | 1902.1     | 1902.1     |   0.0 | 90.09
Neigh   | 105.43     | 105.43     | 105.43     |   0.0 |  4.99
Comm    | 15.343     | 15.343     | 15.343     |   0.0 |  0.73
Output  | 0.000582   | 0.000582   | 0.000582   |   0.0 |  0.00
Modify  | 79.946     | 79.946     | 79.946     |   0.0 |  3.79
Other   |            | 8.62       |            |       |  0.41

Nlocal:          10976 ave       10976 max       10976 min
Histogram: 1 0 0 0 0 0 0 0 0 0
Nghost:          10457 ave       10457 max       10457 min
Histogram: 1 0 0 0 0 0 0 0 0 0
Neighs:         409794 ave      409794 max      409794 min
Histogram: 1 0 0 0 0 0 0 0 0 0

Total # of neighbors = 409794
Ave neighs/atom = 37.335459
Neighbor list builds = 16009
Dangerous builds = 0
uunfix		1

#Equilibrio a nueva T
print	  	"Equilibration starts"
Equilibration starts
fix		2 all npt temp ${newtemp2} ${newtemp2} 0.1 iso 0.0 0.0 1.0
fix		2 all npt temp 950 ${newtemp2} 0.1 iso 0.0 0.0 1.0
fix		2 all npt temp 950 950 0.1 iso 0.0 0.0 1.0
run 		${nequil}
run 		100000
Last active /omp style is pair_style eam/fs/omp
Per MPI rank memory allocation (min/avg/max) = 12.33 | 12.33 | 12.33 Mbytes
   Step          Temp          PotEng    
   2600000   951.86342     -41887.955    
   2610000   944.96254     -41903.892    
   2620000   969.53277     -41918.973    
   2630000   955.61727     -41889.257    
   2640000   941.63055     -41867.635    
   2650000   944.34007     -41895.392    
   2660000   948.10353     -41874.407    
   2670000   968.30286     -41907.938    
   2680000   950.3452      -41890.056    
   2690000   953.31335     -41881.565    
   2700000   951.21717     -41906.126    
Loop time of 1114.22 on 2 procs for 100000 steps with 10976 atoms

Performance: 7.754 ns/day, 3.095 hours/ns, 89.749 timesteps/s, 985.081 katom-step/s
12.6% CPU use with 1 MPI tasks x 2 OpenMP threads

MPI task timing breakdown:
Section |  min time  |  avg time  |  max time  |%varavg| %total
---------------------------------------------------------------
Pair    | 1009       | 1009       | 1009       |   0.0 | 90.56
Neigh   | 52.224     | 52.224     | 52.224     |   0.0 |  4.69
Comm    | 7.9442     | 7.9442     | 7.9442     |   0.0 |  0.71
Output  | 0.000319   | 0.000319   | 0.000319   |   0.0 |  0.00
Modify  | 40.657     | 40.657     | 40.657     |   0.0 |  3.65
Other   |            | 4.354      |            |       |  0.39

Nlocal:          10976 ave       10976 max       10976 min
Histogram: 1 0 0 0 0 0 0 0 0 0
Nghost:          10460 ave       10460 max       10460 min
Histogram: 1 0 0 0 0 0 0 0 0 0
Neighs:         409812 ave      409812 max      409812 min
Histogram: 1 0 0 0 0 0 0 0 0 0

Total # of neighbors = 409812
Ave neighs/atom = 37.337099
Neighbor list builds = 8099
Dangerous builds = 0uunfix		2

#Se colecta estadistica
print	  	"Stats collecting starts"
Stats collecting starts
fix		3 all npt temp ${newtemp2} ${newtemp2} 0.1 iso 0.0 0.0 1.0
fix		3 all npt temp 950 ${newtemp2} 0.1 iso 0.0 0.0 1.0
fix		3 all npt temp 950 950 0.1 iso 0.0 0.0 1.0
dump            3 all custom ${ndump} dump.${newtemp2} id type x y z c_peratom fx fy fz
dump            3 all custom 5000 dump.${newtemp2} id type x y z c_peratom fx fy fz
dump            3 all custom 5000 dump.950 id type x y z c_peratom fx fy fz
dump_modify   	3 element Au Pd
run		${nstat}
run		100000
Last active /omp style is pair_style eam/fs/omp
Per MPI rank memory allocation (min/avg/max) = 14.58 | 14.58 | 14.58 Mbytes
   Step          Temp          PotEng    
   2700000   951.21717     -41906.126    
   2710000   937.69454     -41903.429    
   2720000   960.86198     -41878.281    
   2730000   943.33932     -41887.104    
   2740000   959.14008     -41896.115    
   2750000   957.51756     -41900.967    
   2760000   955.1757      -41886.418    
   2770000   947.63406     -41869.913    
   2780000   961.8232      -41902.997    
   2790000   961.82453     -41869.69     
   2800000   943.84019     -41893.085    
Loop time of 1103.88 on 2 procs for 100000 steps with 10976 atoms

Performance: 7.827 ns/day, 3.066 hours/ns, 90.590 timesteps/s, 994.313 katom-step/s
12.4% CPU use with 1 MPI tasks x 2 OpenMP threads

MPI task timing breakdown:
Section |  min time  |  avg time  |  max time  |%varavg| %total
---------------------------------------------------------------
Pair    | 993.64     | 993.64     | 993.64     |   0.0 | 90.01
Neigh   | 51.862     | 51.862     | 51.862     |   0.0 |  4.70
Comm    | 7.9094     | 7.9094     | 7.9094     |   0.0 |  0.72
Output  | 0.66795    | 0.66795    | 0.66795    |   0.0 |  0.06
Modify  | 45.453     | 45.453     | 45.453     |   0.0 |  4.12
Other   |            | 4.345      |            |       |  0.39

Nlocal:          10976 ave       10976 max       10976 min
Histogram: 1 0 0 0 0 0 0 0 0 0
Nghost:          10458 ave       10458 max       10458 min
Histogram: 1 0 0 0 0 0 0 0 0 0
Neighs:         409228 ave      409228 max      409228 min
Histogram: 1 0 0 0 0 0 0 0 0 0

Total # of neighbors = 409228
Ave neighs/atom = 37.283892
Neighbor list builds = 8084
Dangerous builds = 0uunfix		3
undump		3

#if "${newtemp2} > ${tempa}" then "jump SELF break"
next a
jump SELF loop
variable	a loop ${n1}
variable	a loop 13
variable	newtemp1 equal (v_a-1)*50+v_temp1
variable	newtemp2 equal v_newtemp1+50

#Rampa de T
print	  	"Temperature ramp starts"
Temperature ramp starts
fix             1 all npt temp ${newtemp1} ${newtemp2} 0.1 iso 0.0 0.0 1.0
fix             1 all npt temp 950 ${newtemp2} 0.1 iso 0.0 0.0 1.0
fix             1 all npt temp 950 1000 0.1 iso 0.0 0.0 1.0
run		${nramp}
run		200000
Last active /omp style is pair_style eam/fs/omp
Per MPI rank memory allocation (min/avg/max) = 12.33 | 12.33 | 12.33 Mbytes
   Step          Temp          PotEng    
   2800000   943.84019     -41893.085    
   2810000   943.15786     -41898.296    
   2820000   945.87321     -41903.675    
   2830000   948.95        -41881.706    
   2840000   950.13724     -41873.338    
   2850000   966.2611      -41874.702    
   2860000   958.16153     -41855.472    
   2870000   960.56477     -41851.324    
   2880000   959.71703     -41863.223    
   2890000   965.65846     -41865.875    
   2900000   966.44369     -41829.895    
   2910000   981.22294     -41826.735    
   2920000   983.44502     -41849.267    
   2930000   976.77715     -41817.746    
   2940000   977.55457     -41842.385    
   2950000   971.36383     -41813.993    
   2960000   998.56326     -41811.244    
   2970000   985.09712     -41840.039    
   2980000   988.43355     -41825.433    
   2990000   1008.8255     -41799.844    
   3000000   1001.8591     -41804.54     
Loop time of 2115.2 on 2 procs for 200000 steps with 10976 atoms

Performance: 8.169 ns/day, 2.938 hours/ns, 94.554 timesteps/s, 1.038 Matom-step/s
12.5% CPU use with 1 MPI tasks x 2 OpenMP threads

MPI task timing breakdown:
Section |  min time  |  avg time  |  max time  |%varavg| %total
---------------------------------------------------------------
Pair    | 1905.9     | 1905.9     | 1905.9     |   0.0 | 90.11
Neigh   | 105.27     | 105.27     | 105.27     |   0.0 |  4.98
Comm    | 15.666     | 15.666     | 15.666     |   0.0 |  0.74
Output  | 0.000601   | 0.000601   | 0.000601   |   0.0 |  0.00
Modify  | 79.584     | 79.584     | 79.584     |   0.0 |  3.76
Other   |            | 8.755      |            |       |  0.41

Nlocal:          10976 ave       10976 max       10976 min
Histogram: 1 0 0 0 0 0 0 0 0 0
Nghost:          10446 ave       10446 max       10446 min
Histogram: 1 0 0 0 0 0 0 0 0 0
Neighs:         407627 ave      407627 max      407627 min
Histogram: 1 0 0 0 0 0 0 0 0 0

Total # of neighbors = 407627
Ave neighs/atom = 37.138028
Neighbor list builds = 16397
Dangerous builds = 0
unfix		1

#Equilibrio a nueva T
print	  	"Equilibration starts"
Equilibration starts
fix		2 all npt temp ${newtemp2} ${newtemp2} 0.1 iso 0.0 0.0 1.0
fix		2 all npt temp 1000 ${newtemp2} 0.1 iso 0.0 0.0 1.0
fix		2 all npt temp 1000 1000 0.1 iso 0.0 0.0 1.0
run 		${nequil}
run 		100000
Last active /omp style is pair_style eam/fs/omp
Per MPI rank memory allocation (min/avg/max) = 12.33 | 12.33 | 12.33 Mbytes
   Step          Temp          PotEng    
   3000000   1001.8591     -41804.54     
   3010000   998.28452     -41779.267    
   3020000   1001.5457     -41785.047    
   3030000   1004.7775     -41786.005    
   3040000   998.58118     -41783.762    
   3050000   1000.0838     -41820.69     
   3060000   999.81757     -41796.293    
   3070000   987.71442     -41799.183    
   3080000   988.6782      -41799.453    
   3090000   1003.3661     -41781.751    
   3100000   1005.3809     -41772.612    
Loop time of 1054.18 on 2 procs for 100000 steps with 10976 atoms

Performance: 8.196 ns/day, 2.928 hours/ns, 94.860 timesteps/s, 1.041 Matom-step/s
12.2% CPU use with 1 MPI tasks x 2 OpenMP threads

MPI task timing breakdown:
Section |  min time  |  avg time  |  max time  |%varavg| %total
---------------------------------------------------------------
Pair    | 949.12     | 949.12     | 949.12     |   0.0 | 90.03
Neigh   | 53.228     | 53.228     | 53.228     |   0.0 |  5.05
Comm    | 7.7292     | 7.7292     | 7.7292     |   0.0 |  0.73
Output  | 0.000286   | 0.000286   | 0.000286   |   0.0 |  0.00
Modify  | 39.76      | 39.76      | 39.76      |   0.0 |  3.77
Other   |            | 4.346      |            |       |  0.41

Nlocal:          10976 ave       10976 max       10976 min
Histogram: 1 0 0 0 0 0 0 0 0 0
Nghost:          10450 ave       10450 max       10450 min
Histogram: 1 0 0 0 0 0 0 0 0 0
Neighs:         406738 ave      406738 max      406738 min
Histogram: 1 0 0 0 0 0 0 0 0 0

Total # of neighbors = 406738
Ave neighs/atom = 37.057034
Neighbor list builds = 8296
Dangerous builds = 0
unfix		2

#Se colecta estadistica
print	  	"Stats collecting starts"
Stats collecting starts
fix		3 all npt temp ${newtemp2} ${newtemp2} 0.1 iso 0.0 0.0 1.0
fix		3 all npt temp 1000 ${newtemp2} 0.1 iso 0.0 0.0 1.0
fix		3 all npt temp 1000 1000 0.1 iso 0.0 0.0 1.0
dump            3 all custom ${ndump} dump.${newtemp2} id type x y z c_peratom fx fy fz
dump            3 all custom 5000 dump.${newtemp2} id type x y z c_peratom fx fy fz
dump            3 all custom 5000 dump.1000 id type x y z c_peratom fx fy fz
dump_modify   	3 element Au Pd
run		${nstat}
run		100000
Last active /omp style is pair_style eam/fs/omp
Per MPI rank memory allocation (min/avg/max) = 14.58 | 14.58 | 14.58 Mbytes
   Step          Temp          PotEng    
   3100000   1005.3809     -41772.612    
   3110000   1001.2146     -41782.861    
   3120000   982.9927      -41813.754    
   3130000   999.7225      -41768.754    
   3140000   995.47328     -41781.994    
   3150000   994.22544     -41801.966    
   3160000   1005.296      -41791.701    
   3170000   1006.4484     -41804.448    
   3180000   1003.4757     -41801.182    
   3190000   990.35985     -41815.878    
   3200000   997.3849      -41798.623    
Loop time of 1102.63 on 2 procs for 100000 steps with 10976 atoms

Performance: 7.836 ns/day, 3.063 hours/ns, 90.693 timesteps/s, 995.442 katom-step/s
13.2% CPU use with 1 MPI tasks x 2 OpenMP threads

MPI task timing breakdown:
Section |  min time  |  avg time  |  max time  |%varavg| %total
---------------------------------------------------------------
Pair    | 990.44     | 990.44     | 990.44     |   0.0 | 89.83
Neigh   | 53.176     | 53.176     | 53.176     |   0.0 |  4.82
Comm    | 8.1078     | 8.1078     | 8.1078     |   0.0 |  0.74
Output  | 0.67641    | 0.67641    | 0.67641    |   0.0 |  0.06
Modify  | 45.842     | 45.842     | 45.842     |   0.0 |  4.16
Other   |            | 4.382      |            |       |  0.40

Nlocal:          10976 ave       10976 max       10976 min
Histogram: 1 0 0 0 0 0 0 0 0 0
Nghost:          10441 ave       10441 max       10441 min
Histogram: 1 0 0 0 0 0 0 0 0 0
Neighs:         407034 ave      407034 max      407034 min
Histogram: 1 0 0 0 0 0 0 0 0 0

Total # of neighbors = 407034
Ave neighs/atom = 37.084001
Neighbor list builds = 8287
Dangerous builds = 0
unfix		3
undump		3

#if "${newtemp2} > ${tempa}" then "jump SELF break"
next a
jump SELF loop
variable	a loop ${n1}
variable	a loop 13
variable	newtemp1 equal (v_a-1)*50+v_temp1
variable	newtemp2 equal v_newtemp1+50

#Rampa de T
print	  	"Temperature ramp starts"
Temperature ramp starts
fix             1 all npt temp ${newtemp1} ${newtemp2} 0.1 iso 0.0 0.0 1.0
fix             1 all npt temp 1000 ${newtemp2} 0.1 iso 0.0 0.0 1.0
fix             1 all npt temp 1000 1050 0.1 iso 0.0 0.0 1.0
run		${nramp}
run		200000
Last active /omp style is pair_style eam/fs/omp
Per MPI rank memory allocation (min/avg/max) = 12.33 | 12.33 | 12.33 Mbytes
   Step          Temp          PotEng    
   3200000   997.3849      -41798.623    
   3210000   1011.3205     -41786.273    
   3220000   1002.5752     -41775.771    
   3230000   997.5248      -41777.636    
   3240000   1004.5876     -41765.681    
   3250000   1009.3676     -41767.683    
   3260000   1016.0439     -41756.894    
   3270000   1026.0235     -41751.447    
   3280000   1019.2089     -41769.897    
   3290000   1021.0099     -41730.775    
   3300000   1015.7729     -41697.981    
   3310000   1029.0394     -41726.574    
   3320000   1025.8757     -41732.22     
   3330000   1046.1873     -41736.435    
   3340000   1017.3349     -41718.434    
   3350000   1041.1182     -41719.549    
   3360000   1030.8695     -41727.691    
   3370000   1037.1856     -41717.561    
   3380000   1043.5034     -41694.747    
   3390000   1044.7436     -41673.06     
   3400000   1044.7982     -41680.29     
Loop time of 2118.3 on 2 procs for 200000 steps with 10976 atoms

Performance: 8.157 ns/day, 2.942 hours/ns, 94.415 timesteps/s, 1.036 Matom-step/s
12.4% CPU use with 1 MPI tasks x 2 OpenMP threads

MPI task timing breakdown:
Section |  min time  |  avg time  |  max time  |%varavg| %total
---------------------------------------------------------------
Pair    | 1906.3     | 1906.3     | 1906.3     |   0.0 | 89.99
Neigh   | 107.52     | 107.52     | 107.52     |   0.0 |  5.08
Comm    | 15.798     | 15.798     | 15.798     |   0.0 |  0.75
Output  | 0.000587   | 0.000587   | 0.000587   |   0.0 |  0.00
Modify  | 79.989     | 79.989     | 79.989     |   0.0 |  3.78
Other   |            | 8.683      |            |       |  0.41

Nlocal:          10976 ave       10976 max       10976 min
Histogram: 1 0 0 0 0 0 0 0 0 0
Nghost:          10449 ave       10449 max       10449 min
Histogram: 1 0 0 0 0 0 0 0 0 0
Neighs:         404686 ave      404686 max      404686 min
Histogram: 1 0 0 0 0 0 0 0 0 0

Total # of neighbors = 404686
Ave neighs/atom = 36.87008
Neighbor list builds = 16790
Dangerous builds = 0
unfix		1

#Equilibrio a nueva T
print	  	"Equilibration starts"
Equilibration starts
fix		2 all npt temp ${newtemp2} ${newtemp2} 0.1 iso 0.0 0.0 1.0
fix		2 all npt temp 1050 ${newtemp2} 0.1 iso 0.0 0.0 1.0
fix		2 all npt temp 1050 1050 0.1 iso 0.0 0.0 1.0
run 		${nequil}
run 		100000
Last active /omp style is pair_style eam/fs/omp
Per MPI rank memory allocation (min/avg/max) = 12.33 | 12.33 | 12.33 Mbytes
   Step          Temp          PotEng    
   3400000   1044.7982     -41680.29     
   3410000   1042.735      -41692.868    
   3420000   1058.3972     -41684.424    
   3430000   1045.4569     -41702.314    
   3440000   1052.0008     -41692.227    
   3450000   1045.3021     -41697.992    
   3460000   1069.8678     -41693.671    
   3470000   1068.2478     -41690.818    
   3480000   1057.5194     -41702.523    
   3490000   1050.1245     -41720.924    
   3500000   1058.62       -41685.408    
Loop time of 1058.19 on 2 procs for 100000 steps with 10976 atoms

Performance: 8.165 ns/day, 2.939 hours/ns, 94.501 timesteps/s, 1.037 Matom-step/s
12.3% CPU use with 1 MPI tasks x 2 OpenMP threads

MPI task timing breakdown:
Section |  min time  |  avg time  |  max time  |%varavg| %total
---------------------------------------------------------------
Pair    | 951.48     | 951.48     | 951.48     |   0.0 | 89.92
Neigh   | 54.592     | 54.592     | 54.592     |   0.0 |  5.16
Comm    | 7.8864     | 7.8864     | 7.8864     |   0.0 |  0.75
Output  | 0.000307   | 0.000307   | 0.000307   |   0.0 |  0.00
Modify  | 39.904     | 39.904     | 39.904     |   0.0 |  3.77
Other   |            | 4.329      |            |       |  0.41

Nlocal:          10976 ave       10976 max       10976 min
Histogram: 1 0 0 0 0 0 0 0 0 0
Nghost:          10442 ave       10442 max       10442 min
Histogram: 1 0 0 0 0 0 0 0 0 0
Neighs:         404339 ave      404339 max      404339 min
Histogram: 1 0 0 0 0 0 0 0 0 0

Total # of neighbors = 404339
Ave neighs/atom = 36.838466
Neighbor list builds = 8500
Dangerous builds = 0
unfix		2

#Se colecta estadistica
print	  	"Stats collecting starts"
Stats collecting starts
fix		3 all npt temp ${newtemp2} ${newtemp2} 0.1 iso 0.0 0.0 1.0
fix		3 all npt temp 1050 ${newtemp2} 0.1 iso 0.0 0.0 1.0
fix		3 all npt temp 1050 1050 0.1 iso 0.0 0.0 1.0
dump            3 all custom ${ndump} dump.${newtemp2} id type x y z c_peratom fx fy fz
dump            3 all custom 5000 dump.${newtemp2} id type x y z c_peratom fx fy fz
dump            3 all custom 5000 dump.1050 id type x y z c_peratom fx fy fz
dump_modify   	3 element Au Pd
run		${nstat}
run		100000
Last active /omp style is pair_style eam/fs/omp
Per MPI rank memory allocation (min/avg/max) = 14.58 | 14.58 | 14.58 Mbytes
   Step          Temp          PotEng    
   3500000   1058.62       -41685.408    
   3510000   1051.7707     -41683.753    
   3520000   1044.5357     -41688.828    
   3530000   1034.9251     -41697.408    
   3540000   1063.6672     -41703.196    
   3550000   1056.0722     -41683.2      
   3560000   1041.2176     -41701.769    
   3570000   1049.0957     -41694.596    
   3580000   1042.2059     -41679.497    
   3590000   1052.2216     -41678.593    
   3600000   1046.85       -41692.415    
Loop time of 1063.21 on 2 procs for 100000 steps with 10976 atoms

Performance: 8.126 ns/day, 2.953 hours/ns, 94.055 timesteps/s, 1.032 Matom-step/s
12.5% CPU use with 1 MPI tasks x 2 OpenMP threads

MPI task timing breakdown:
Section |  min time  |  avg time  |  max time  |%varavg| %total
---------------------------------------------------------------
Pair    | 951.26     | 951.26     | 951.26     |   0.0 | 89.47
Neigh   | 54.503     | 54.503     | 54.503     |   0.0 |  5.13
Comm    | 7.7192     | 7.7192     | 7.7192     |   0.0 |  0.73
Output  | 0.66582    | 0.66582    | 0.66582    |   0.0 |  0.06
Modify  | 44.708     | 44.708     | 44.708     |   0.0 |  4.20
Other   |            | 4.357      |            |       |  0.41

Nlocal:          10976 ave       10976 max       10976 min
Histogram: 1 0 0 0 0 0 0 0 0 0
Nghost:          10449 ave       10449 max       10449 min
Histogram: 1 0 0 0 0 0 0 0 0 0
Neighs:         404400 ave      404400 max      404400 min
Histogram: 1 0 0 0 0 0 0 0 0 0

Total # of neighbors = 404400
Ave neighs/atom = 36.844023
Neighbor list builds = 8498
Dangerous builds = 0
unfix		3
undump		3

#if "${newtemp2} > ${tempa}" then "jump SELF break"
next a
jump SELF loop
variable	a loop ${n1}
variable	a loop 13
variable	newtemp1 equal (v_a-1)*50+v_temp1
variable	newtemp2 equal v_newtemp1+50

#Rampa de T
print	  	"Temperature ramp starts"
Temperature ramp starts
fix             1 all npt temp ${newtemp1} ${newtemp2} 0.1 iso 0.0 0.0 1.0
fix             1 all npt temp 1050 ${newtemp2} 0.1 iso 0.0 0.0 1.0
fix             1 all npt temp 1050 1100 0.1 iso 0.0 0.0 1.0
run		${nramp}
run		200000
Last active /omp style is pair_style eam/fs/omp
Per MPI rank memory allocation (min/avg/max) = 12.33 | 12.33 | 12.33 Mbytes
   Step          Temp          PotEng    
   3600000   1046.85       -41692.415    
   3610000   1053.7572     -41665.731    
   3620000   1053.8541     -41675.025    
   3630000   1065.2662     -41687.076    
   3640000   1061.8806     -41641.051    
   3650000   1077.0499     -41670.742    
   3660000   1064.774      -41648.982    
   3670000   1062.4975     -41677.485    
   3680000   1074.069      -41637.234    
   3690000   1076.0349     -41600.526    
   3700000   1054.1105     -41635.985    
   3710000   1065.9653     -41597.417    
   3720000   1072.8651     -41605.349    
   3730000   1079.82       -41656.522    
   3740000   1068.2404     -41618.906    
   3750000   1094.756      -41588.078    
   3760000   1080.6248     -41610.317    
   3770000   1080.7971     -41621.407    
   3780000   1081.3828     -41586.972    
   3790000   1080.8552     -41596.534    
   3800000   1090.2583     -41601.052    
Loop time of 2080.52 on 2 procs for 200000 steps with 10976 atoms

Performance: 8.306 ns/day, 2.890 hours/ns, 96.130 timesteps/s, 1.055 Matom-step/s
11.9% CPU use with 1 MPI tasks x 2 OpenMP threads

MPI task timing breakdown:
Section |  min time  |  avg time  |  max time  |%varavg| %total
---------------------------------------------------------------
Pair    | 1867.2     | 1867.2     | 1867.2     |   0.0 | 89.75
Neigh   | 110.29     | 110.29     | 110.29     |   0.0 |  5.30
Comm    | 15.345     | 15.345     | 15.345     |   0.0 |  0.74
Output  | 0.000587   | 0.000587   | 0.000587   |   0.0 |  0.00
Modify  | 78.948     | 78.948     | 78.948     |   0.0 |  3.79
Other   |            | 8.709      |            |       |  0.42

Nlocal:          10976 ave       10976 max       10976 min
Histogram: 1 0 0 0 0 0 0 0 0 0
Nghost:          10437 ave       10437 max       10437 min
Histogram: 1 0 0 0 0 0 0 0 0 0
Neighs:         402028 ave      402028 max      402028 min
Histogram: 1 0 0 0 0 0 0 0 0 0

Total # of neighbors = 402028
Ave neighs/atom = 36.627915
Neighbor list builds = 17189
Dangerous builds = 0
unfix		1

#Equilibrio a nueva T
print	  	"Equilibration starts"
Equilibration starts
fix		2 all npt temp ${newtemp2} ${newtemp2} 0.1 iso 0.0 0.0 1.0
fix		2 all npt temp 1100 ${newtemp2} 0.1 iso 0.0 0.0 1.0
fix		2 all npt temp 1100 1100 0.1 iso 0.0 0.0 1.0
run 		${nequil}
run 		100000
Last active /omp style is pair_style eam/fs/omp
Per MPI rank memory allocation (min/avg/max) = 12.33 | 12.33 | 12.33 Mbytes
   Step          Temp          PotEng    
   3800000   1090.2583     -41601.052    
   3810000   1091.4789     -41582.298    
   3820000   1101.5868     -41573.011    
   3830000   1118.989      -41577.514    
   3840000   1107.2128     -41609.794    
   3850000   1101.1474     -41567.574    
   3860000   1098.6821     -41583.354    
   3870000   1095.4484     -41578.101    
   3880000   1108.8636     -41571.22     
   3890000   1108.3712     -41567.882    
   3900000   1104.0144     -41597.801    
Loop time of 1109.91 on 2 procs for 100000 steps with 10976 atoms

Performance: 7.784 ns/day, 3.083 hours/ns, 90.098 timesteps/s, 988.911 katom-step/s
13.9% CPU use with 1 MPI tasks x 2 OpenMP threads

MPI task timing breakdown:
Section |  min time  |  avg time  |  max time  |%varavg| %total
---------------------------------------------------------------
Pair    | 999.25     | 999.25     | 999.25     |   0.0 | 90.03
Neigh   | 56.826     | 56.826     | 56.826     |   0.0 |  5.12
Comm    | 8.2651     | 8.2651     | 8.2651     |   0.0 |  0.74
Output  | 0.000303   | 0.000303   | 0.000303   |   0.0 |  0.00
Modify  | 41.141     | 41.141     | 41.141     |   0.0 |  3.71
Other   |            | 4.428      |            |       |  0.40

Nlocal:          10976 ave       10976 max       10976 min
Histogram: 1 0 0 0 0 0 0 0 0 0
Nghost:          10445 ave       10445 max       10445 min
Histogram: 1 0 0 0 0 0 0 0 0 0
Neighs:         401753 ave      401753 max      401753 min
Histogram: 1 0 0 0 0 0 0 0 0 0

Total # of neighbors = 401753
Ave neighs/atom = 36.602861
Neighbor list builds = 8674
Dangerous builds = 0
unfix		2

#Se colecta estadistica
print	  	"Stats collecting starts"
Stats collecting starts
fix		3 all npt temp ${newtemp2} ${newtemp2} 0.1 iso 0.0 0.0 1.0
fix		3 all npt temp 1100 ${newtemp2} 0.1 iso 0.0 0.0 1.0
fix		3 all npt temp 1100 1100 0.1 iso 0.0 0.0 1.0
dump            3 all custom ${ndump} dump.${newtemp2} id type x y z c_peratom fx fy fz
dump            3 all custom 5000 dump.${newtemp2} id type x y z c_peratom fx fy fz
dump            3 all custom 5000 dump.1100 id type x y z c_peratom fx fy fz
dump_modify   	3 element Au Pd
run		${nstat}
run		100000
Last active /omp style is pair_style eam/fs/omp
Per MPI rank memory allocation (min/avg/max) = 14.58 | 14.58 | 14.58 Mbytes
   Step          Temp          PotEng    
   3900000   1104.0144     -41597.801    
   3910000   1092.807      -41579.026    
   3920000   1095.1131     -41574.563    
   3930000   1103.0672     -41600.362    
   3940000   1096.1548     -41590.665    
   3950000   1110.9427     -41613.751    
   3960000   1087.5798     -41547.951    
   3970000   1098.3405     -41598.469    
   3980000   1097.0036     -41559.849    
   3990000   1088.0406     -41591.024    
   4000000   1101.1576     -41561.154    
Loop time of 1074.93 on 2 procs for 100000 steps with 10976 atoms

Performance: 8.038 ns/day, 2.986 hours/ns, 93.029 timesteps/s, 1.021 Matom-step/s
12.8% CPU use with 1 MPI tasks x 2 OpenMP threads

MPI task timing breakdown:
Section |  min time  |  avg time  |  max time  |%varavg| %total
---------------------------------------------------------------
Pair    | 960.82     | 960.82     | 960.82     |   0.0 | 89.38
Neigh   | 56.088     | 56.088     | 56.088     |   0.0 |  5.22
Comm    | 8.0265     | 8.0265     | 8.0265     |   0.0 |  0.75
Output  | 0.66303    | 0.66303    | 0.66303    |   0.0 |  0.06
Modify  | 44.958     | 44.958     | 44.958     |   0.0 |  4.18
Other   |            | 4.376      |            |       |  0.41

Nlocal:          10976 ave       10976 max       10976 min
Histogram: 1 0 0 0 0 0 0 0 0 0
Nghost:          10436 ave       10436 max       10436 min
Histogram: 1 0 0 0 0 0 0 0 0 0
Neighs:         401407 ave      401407 max      401407 min
Histogram: 1 0 0 0 0 0 0 0 0 0

Total # of neighbors = 401407
Ave neighs/atom = 36.571337
Neighbor list builds = 8698
Dangerous builds = 0
unfix		3
undump		3

#if "${newtemp2} > ${tempa}" then "jump SELF break"
next a
jump SELF loop
variable	a loop ${n1}
variable	a loop 13
variable	newtemp1 equal (v_a-1)*50+v_temp1
variable	newtemp2 equal v_newtemp1+50

#Rampa de T
print	  	"Temperature ramp starts"
Temperature ramp starts
fix             1 all npt temp ${newtemp1} ${newtemp2} 0.1 iso 0.0 0.0 1.0
fix             1 all npt temp 1100 ${newtemp2} 0.1 iso 0.0 0.0 1.0
fix             1 all npt temp 1100 1150 0.1 iso 0.0 0.0 1.0
run		${nramp}
run		200000
Last active /omp style is pair_style eam/fs/omp
Per MPI rank memory allocation (min/avg/max) = 12.33 | 12.33 | 12.33 Mbytes
   Step          Temp          PotEng    
   4000000   1101.1576     -41561.154    
   4010000   1092.9016     -41583.754    
   4020000   1114.451      -41570.979    
   4030000   1110.4052     -41548.961    
   4040000   1111.6371     -41564.483    
   4050000   1100.0256     -41542.602    
   4060000   1114.525      -41552.526    
   4070000   1115.9266     -41545.33     
   4080000   1115.2867     -41531.354    
   4090000   1125.3207     -41516.934    
   4100000   1131.4308     -41543.332    
   4110000   1135.9195     -41511.071    
   4120000   1136.3556     -41531.48     
   4130000   1139.7342     -41480.545    
   4140000   1133.9418     -41524.474    
   4150000   1146.6615     -41508.74     
   4160000   1145.4242     -41511.261    
   4170000   1156.0957     -41469.931    
   4180000   1150.4799     -41457.386    
   4190000   1143.6905     -41473.679    
   4200000   1158.7165     -41471.578    
Loop time of 2086.62 on 2 procs for 200000 steps with 10976 atoms

Performance: 8.281 ns/day, 2.898 hours/ns, 95.849 timesteps/s, 1.052 Matom-step/s
11.9% CPU use with 1 MPI tasks x 2 OpenMP threads

MPI task timing breakdown:
Section |  min time  |  avg time  |  max time  |%varavg| %total
---------------------------------------------------------------
Pair    | 1870.1     | 1870.1     | 1870.1     |   0.0 | 89.62
Neigh   | 112.9      | 112.9      | 112.9      |   0.0 |  5.41
Comm    | 15.634     | 15.634     | 15.634     |   0.0 |  0.75
Output  | 0.000611   | 0.000611   | 0.000611   |   0.0 |  0.00
[...]
Histogram: 1 0 0 0 0 0 0 0 0 0
Neighs:         339743 ave      339743 max      339743 min
Histogram: 1 0 0 0 0 0 0 0 0 0

Total # of neighbors = 339743
Ave neighs/atom = 30.953262
Neighbor list builds = 20900
Dangerous builds = 0
unfix		1

#Equilibrio a nueva T
print	  	"Equilibration starts"
Equilibration starts
fix		2 all npt temp ${newtemp2} ${newtemp2} 0.1 iso 0.0 0.0 1.0
fix		2 all npt temp 1650 ${newtemp2} 0.1 iso 0.0 0.0 1.0
fix		2 all npt temp 1650 1650 0.1 iso 0.0 0.0 1.0
run 		${nequil}
run 		100000
Last active /omp style is pair_style eam/fs/omp
Per MPI rank memory allocation (min/avg/max) = 12.33 | 12.33 | 12.33 Mbytes
   Step          Temp          PotEng    
   8200000   1638.5995     -38980.323    
   8210000   1643.6677     -38985.108    
   8220000   1650.7354     -38935.856    
   8230000   1635.1208     -38968.996    
   8240000   1640.5302     -38980.03     
   8250000   1636.2376     -38903.73     
   8260000   1641.1501     -38955.128    
   8270000   1649.4041     -38930.504    
   8280000   1652.1928     -38944.982    
   8290000   1683.5441     -38930.722    
   8300000   1631.1189     -38930.399    
Loop time of 2556.22 on 2 procs for 100000 steps with 10976 atoms

Performance: 3.380 ns/day, 7.101 hours/ns, 39.120 timesteps/s, 429.383 katom-step/s
42.8% CPU use with 1 MPI tasks x 2 OpenMP threads

MPI task timing breakdown:
Section |  min time  |  avg time  |  max time  |%varavg| %total
---------------------------------------------------------------
Pair    | 2322.1     | 2322.1     | 2322.1     |   0.0 | 90.84
Neigh   | 110.25     | 110.25     | 110.25     |   0.0 |  4.31
Comm    | 17.884     | 17.884     | 17.884     |   0.0 |  0.70
Output  | 0.000442   | 0.000442   | 0.000442   |   0.0 |  0.00
Modify  | 96.408     | 96.408     | 96.408     |   0.0 |  3.77
Other   |            | 9.533      |            |       |  0.37

Nlocal:          10976 ave       10976 max       10976 min
Histogram: 1 0 0 0 0 0 0 0 0 0
Nghost:           9040 ave        9040 max        9040 min
Histogram: 1 0 0 0 0 0 0 0 0 0
Neighs:         338577 ave      338577 max      338577 min
Histogram: 1 0 0 0 0 0 0 0 0 0

Total # of neighbors = 338577
Ave neighs/atom = 30.84703
Neighbor list builds = 10516
Dangerous builds = 0
unfix		2

#Se colecta estadistica
print	  	"Stats collecting starts"
Stats collecting starts
fix		3 all npt temp ${newtemp2} ${newtemp2} 0.1 iso 0.0 0.0 1.0
fix		3 all npt temp 1650 ${newtemp2} 0.1 iso 0.0 0.0 1.0
fix		3 all npt temp 1650 1650 0.1 iso 0.0 0.0 1.0
dump            3 all custom ${ndump} dump.${newtemp2} id type x y z c_peratom fx fy fz
dump            3 all custom 5000 dump.${newtemp2} id type x y z c_peratom fx fy fz
dump            3 all custom 5000 dump.1650 id type x y z c_peratom fx fy fz
dump_modify   	3 element Au Pd

#neigh_modify    once yes
run		${nstat}
run		100000
Last active /omp style is pair_style eam/fs/omp
Per MPI rank memory allocation (min/avg/max) = 14.58 | 14.58 | 14.58 Mbytes
   Step          Temp          PotEng    
   8300000   1631.1189     -38930.399    
   8310000   1625.0359     -38959.999    
   8320000   1656.1652     -38972.985    
   8330000   1651.2518     -38943.401    
   8340000   1636.1693     -38963.846    
   8350000   1652.4065     -38928.682    
   8360000   1648.0882     -38934.286    
   8370000   1630.792      -39003.455    
   8380000   1641.7458     -38943.161    
   8390000   1647.8341     -38971.484    
   8400000   1642.8092     -38945.325    
Loop time of 2830.91 on 2 procs for 100000 steps with 10976 atoms

Performance: 3.052 ns/day, 7.864 hours/ns, 35.324 timesteps/s, 387.719 katom-step/s
44.5% CPU use with 1 MPI tasks x 2 OpenMP threads

MPI task timing breakdown:
Section |  min time  |  avg time  |  max time  |%varavg| %total
---------------------------------------------------------------
Pair    | 2573       | 2573       | 2573       |   0.0 | 90.89
Neigh   | 114.64     | 114.64     | 114.64     |   0.0 |  4.05
Comm    | 19.987     | 19.987     | 19.987     |   0.0 |  0.71
Output  | 1.1621     | 1.1621     | 1.1621     |   0.0 |  0.04
Modify  | 111.62     | 111.62     | 111.62     |   0.0 |  3.94
Other   |            | 10.54      |            |       |  0.37

Nlocal:          10976 ave       10976 max       10976 min
Histogram: 1 0 0 0 0 0 0 0 0 0
Nghost:           8995 ave        8995 max        8995 min
Histogram: 1 0 0 0 0 0 0 0 0 0
Neighs:         339260 ave      339260 max      339260 min
Histogram: 1 0 0 0 0 0 0 0 0 0

Total # of neighbors = 339260
Ave neighs/atom = 30.909257
Neighbor list builds = 10510
Dangerous builds = 0
unfix		3
undump		3

#if "${newtemp2} > ${temp2}" then "jump SELF break3"
next c
jump SELF loop3
variable	c loop ${n3}
variable	c loop 13
variable	newtemp1 equal (v_c-1)*50+v_tempb
variable	newtemp2 equal v_newtemp1+50

#Rampa de T
print	  	"Temperature ramp starts"
Temperature ramp starts
fix             1 all npt temp ${newtemp1} ${newtemp2} 0.1 iso 0.0 0.0 1.0
fix             1 all npt temp 1650 ${newtemp2} 0.1 iso 0.0 0.0 1.0
fix             1 all npt temp 1650 1700 0.1 iso 0.0 0.0 1.0
run		${nramp}
run		200000
Last active /omp style is pair_style eam/fs/omp
Per MPI rank memory allocation (min/avg/max) = 12.33 | 12.33 | 12.33 Mbytes
   Step          Temp          PotEng    
   8400000   1642.8092     -38945.325    
   8410000   1646.1409     -38939.39     
   8420000   1653.7892     -38940.405    
   8430000   1664.1161     -38934.581    
   8440000   1661.7359     -38974.344    
   8450000   1645.0135     -38898.975    
   8460000   1668.8323     -38912.772    
   8470000   1672.3105     -38895.486    
   8480000   1657.5155     -38916.63     
   8490000   1672.3777     -38919.504    
   8500000   1690.3953     -38895.661    
   8510000   1683.4749     -38888.913    
   8520000   1670.9968     -38846.123    
   8530000   1662.7691     -38858.653    
   8540000   1676.153      -38855.739    
   8550000   1703.7613     -38887.274    
   8560000   1713.1563     -38879.966    
   8570000   1711.3291     -38838.005    
   8580000   1719.576      -38795.61     
   8590000   1701.8166     -38868.23     
   8600000   1699.9066     -38860.432    
Loop time of 6183.74 on 2 procs for 200000 steps with 10976 atoms

Performance: 2.794 ns/day, 8.589 hours/ns, 32.343 timesteps/s, 354.995 katom-step/s
53.6% CPU use with 1 MPI tasks x 2 OpenMP threads

MPI task timing breakdown:
Section |  min time  |  avg time  |  max time  |%varavg| %total
---------------------------------------------------------------
Pair    | 5664.8     | 5664.8     | 5664.8     |   0.0 | 91.61
Neigh   | 231.08     | 231.08     | 231.08     |   0.0 |  3.74
Comm    | 44.279     | 44.279     | 44.279     |   0.0 |  0.72
Output  | 0.000996   | 0.000996   | 0.000996   |   0.0 |  0.00
Modify  | 220.66     | 220.66     | 220.66     |   0.0 |  3.57
Other   |            | 22.93      |            |       |  0.37

Nlocal:          10976 ave       10976 max       10976 min
Histogram: 1 0 0 0 0 0 0 0 0 0
Nghost:           9105 ave        9105 max        9105 min
Histogram: 1 0 0 0 0 0 0 0 0 0
Neighs:         337205 ave      337205 max      337205 min
Histogram: 1 0 0 0 0 0 0 0 0 0

Total # of neighbors = 337205
Ave neighs/atom = 30.72203
Neighbor list builds = 21199
Dangerous builds = 0
unfix		1

#Equilibrio a nueva T
print	  	"Equilibration starts"
Equilibration starts
fix		2 all npt temp ${newtemp2} ${newtemp2} 0.1 iso 0.0 0.0 1.0
fix		2 all npt temp 1700 ${newtemp2} 0.1 iso 0.0 0.0 1.0
fix		2 all npt temp 1700 1700 0.1 iso 0.0 0.0 1.0
run 		${nequil}
run 		100000
Last active /omp style is pair_style eam/fs/omp
Per MPI rank memory allocation (min/avg/max) = 12.34 | 12.34 | 12.34 Mbytes
   Step          Temp          PotEng    
   8600000   1699.9066     -38860.432    
   8610000   1696.5634     -38884.604    
   8620000   1688.6506     -38804.934    
   8630000   1705.3765     -38831.895    
   8640000   1696.6217     -38850.868    
   8650000   1683.8512     -38797.107    
   8660000   1697.1217     -38786.68     
   8670000   1709.4675     -38823.435    
   8680000   1695.7609     -38822.838    
   8690000   1703.6349     -38820.669    
   8700000   1713.45       -38835.719    
Loop time of 3215.49 on 2 procs for 100000 steps with 10976 atoms

Performance: 2.687 ns/day, 8.932 hours/ns, 31.099 timesteps/s, 341.347 katom-step/s
60.0% CPU use with 1 MPI tasks x 2 OpenMP threads

MPI task timing breakdown:
Section |  min time  |  avg time  |  max time  |%varavg| %total
---------------------------------------------------------------
Pair    | 2951       | 2951       | 2951       |   0.0 | 91.77
Neigh   | 115.66     | 115.66     | 115.66     |   0.0 |  3.60
Comm    | 23.402     | 23.402     | 23.402     |   0.0 |  0.73
Output  | 0.000662   | 0.000662   | 0.000662   |   0.0 |  0.00
Modify  | 113.47     | 113.47     | 113.47     |   0.0 |  3.53
Other   |            | 11.96      |            |       |  0.37

Nlocal:          10976 ave       10976 max       10976 min
Histogram: 1 0 0 0 0 0 0 0 0 0
Nghost:           9053 ave        9053 max        9053 min
Histogram: 1 0 0 0 0 0 0 0 0 0
Neighs:         336503 ave      336503 max      336503 min
Histogram: 1 0 0 0 0 0 0 0 0 0

Total # of neighbors = 336503
Ave neighs/atom = 30.658072
Neighbor list builds = 10655
Dangerous builds = 0
unfix		2

#Se colecta estadistica
print	  	"Stats collecting starts"
Stats collecting starts
fix		3 all npt temp ${newtemp2} ${newtemp2} 0.1 iso 0.0 0.0 1.0
fix		3 all npt temp 1700 ${newtemp2} 0.1 iso 0.0 0.0 1.0
fix		3 all npt temp 1700 1700 0.1 iso 0.0 0.0 1.0
dump            3 all custom ${ndump} dump.${newtemp2} id type x y z c_peratom fx fy fz
dump            3 all custom 5000 dump.${newtemp2} id type x y z c_peratom fx fy fz
dump            3 all custom 5000 dump.1700 id type x y z c_peratom fx fy fz
dump_modify   	3 element Au Pd

#neigh_modify    once yes
run		${nstat}
run		100000
Last active /omp style is pair_style eam/fs/omp
Per MPI rank memory allocation (min/avg/max) = 14.59 | 14.59 | 14.59 Mbytes
   Step          Temp          PotEng    
   8700000   1713.45       -38835.719    
   8710000   1677.0568     -38805.67     
   8720000   1706.9134     -38805.87     
   8730000   1698.1877     -38839.991    
   8740000   1691.8635     -38839.441    
   8750000   1693.9091     -38835.924    
   8760000   1713.6282     -38812.853    
   8770000   1708.1302     -38832.595    
   8780000   1724.1542     -38783.913    
   8790000   1676.45       -38810.31     
   8800000   1731.39       -38810.561    
Loop time of 3221.74 on 2 procs for 100000 steps with 10976 atoms

Performance: 2.682 ns/day, 8.949 hours/ns, 31.039 timesteps/s, 340.686 katom-step/s
63.4% CPU use with 1 MPI tasks x 2 OpenMP threads

MPI task timing breakdown:
Section |  min time  |  avg time  |  max time  |%varavg| %total
---------------------------------------------------------------
Pair    | 2925.5     | 2925.5     | 2925.5     |   0.0 | 90.81
Neigh   | 111.87     | 111.87     | 111.87     |   0.0 |  3.47
Comm    | 24.293     | 24.293     | 24.293     |   0.0 |  0.75
Output  | 1.1667     | 1.1667     | 1.1667     |   0.0 |  0.04
Modify  | 146.01     | 146.01     | 146.01     |   0.0 |  4.53
Other   |            | 12.87      |            |       |  0.40

Nlocal:          10976 ave       10976 max       10976 min
Histogram: 1 0 0 0 0 0 0 0 0 0
Nghost:           9042 ave        9042 max        9042 min
Histogram: 1 0 0 0 0 0 0 0 0 0
Neighs:         336144 ave      336144 max      336144 min
Histogram: 1 0 0 0 0 0 0 0 0 0

Total # of neighbors = 336144
Ave neighs/atom = 30.625364
Neighbor list builds = 10685
Dangerous builds = 0
unfix		3
undump		3

#if "${newtemp2} > ${temp2}" then "jump SELF break3"
next c
jump SELF loop3
variable	c loop ${n3}
variable	c loop 13
variable	newtemp1 equal (v_c-1)*50+v_tempb
variable	newtemp2 equal v_newtemp1+50

#Rampa de T
print	  	"Temperature ramp starts"
Temperature ramp starts
fix             1 all npt temp ${newtemp1} ${newtemp2} 0.1 iso 0.0 0.0 1.0
fix             1 all npt temp 1700 ${newtemp2} 0.1 iso 0.0 0.0 1.0
fix             1 all npt temp 1700 1750 0.1 iso 0.0 0.0 1.0
run		${nramp}
run		200000
Last active /omp style is pair_style eam/fs/omp
Per MPI rank memory allocation (min/avg/max) = 12.34 | 12.34 | 12.34 Mbytes
   Step          Temp          PotEng    
   8800000   1731.39       -38810.561    
   8810000   1688.5296     -38831.803    
   8820000   1701.7123     -38790.61     
   8830000   1710.6665     -38812.909    
   8840000   1696.6184     -38821.995    
   8850000   1699.9755     -38756.16     
   8860000   1715.8092     -38797.402    
   8870000   1733.06       -38789.421    
   8880000   1722.7288     -38782.879    
   8890000   1749.5436     -38770.957    
   8900000   1701.5272     -38752.827    
   8910000   1694.073      -38790.194    
   8920000   1726.167      -38734.593    
   8930000   1734.7067     -38748.7      
   8940000   1729.844      -38744.707    
   8950000   1724.7252     -38729.981    
   8960000   1734.001      -38770.452    
   8970000   1750.1786     -38767.567    
   8980000   1764.2607     -38706.38     
   8990000   1748.8959     -38696.031    
   9000000   1764.9799     -38756.343    
Loop time of 3039.04 on 2 procs for 200000 steps with 10976 atoms

Performance: 5.686 ns/day, 4.221 hours/ns, 65.810 timesteps/s, 722.333 katom-step/s
30.3% CPU use with 1 MPI tasks x 2 OpenMP threads

MPI task timing breakdown:
Section |  min time  |  avg time  |  max time  |%varavg| %total
---------------------------------------------------------------
Pair    | 2737.2     | 2737.2     | 2737.2     |   0.0 | 90.07
Neigh   | 148.67     | 148.67     | 148.67     |   0.0 |  4.89
Comm    | 23.387     | 23.387     | 23.387     |   0.0 |  0.77
Output  | 0.000723   | 0.000723   | 0.000723   |   0.0 |  0.00
Modify  | 117.14     | 117.14     | 117.14     |   0.0 |  3.85
Other   |            | 12.66      |            |       |  0.42

Nlocal:          10976 ave       10976 max       10976 min
Histogram: 1 0 0 0 0 0 0 0 0 0
Nghost:           9030 ave        9030 max        9030 min
Histogram: 1 0 0 0 0 0 0 0 0 0
Neighs:         334517 ave      334517 max      334517 min
Histogram: 1 0 0 0 0 0 0 0 0 0

Total # of neighbors = 334517
Ave neighs/atom = 30.477132
Neighbor list builds = 21494
Dangerous builds = 0
unfix		1

#Equilibrio a nueva T
print	  	"Equilibration starts"
Equilibration starts
fix		2 all npt temp ${newtemp2} ${newtemp2} 0.1 iso 0.0 0.0 1.0
fix		2 all npt temp 1750 ${newtemp2} 0.1 iso 0.0 0.0 1.0
fix		2 all npt temp 1750 1750 0.1 iso 0.0 0.0 1.0
run 		${nequil}
run 		100000
Last active /omp style is pair_style eam/fs/omp
Per MPI rank memory allocation (min/avg/max) = 12.34 | 12.34 | 12.34 Mbytes
   Step          Temp          PotEng    
   9000000   1764.9799     -38756.343    
   9010000   1744.3155     -38723.216    
   9020000   1727.8419     -38708.357    
   9030000   1746.2765     -38731.086    
   9040000   1766.0295     -38693.293    
   9050000   1743.9811     -38727.523    
   9060000   1730.8149     -38696.127    
   9070000   1734.9131     -38715.613    
   9080000   1768.2233     -38730.731    
   9090000   1749.8416     -38700.204    
   9100000   1741.6458     -38727.636    
Loop time of 1674.69 on 2 procs for 100000 steps with 10976 atoms

Performance: 5.159 ns/day, 4.652 hours/ns, 59.713 timesteps/s, 655.405 katom-step/s
25.9% CPU use with 1 MPI tasks x 2 OpenMP threads

MPI task timing breakdown:
Section |  min time  |  avg time  |  max time  |%varavg| %total
---------------------------------------------------------------
Pair    | 1517.4     | 1517.4     | 1517.4     |   0.0 | 90.61
Neigh   | 78.227     | 78.227     | 78.227     |   0.0 |  4.67
Comm    | 12.999     | 12.999     | 12.999     |   0.0 |  0.78
Output  | 0.000369   | 0.000369   | 0.000369   |   0.0 |  0.00
Modify  | 59.034     | 59.034     | 59.034     |   0.0 |  3.53
Other   |            | 7.02       |            |       |  0.42

Nlocal:          10976 ave       10976 max       10976 min
Histogram: 1 0 0 0 0 0 0 0 0 0
Nghost:           9025 ave        9025 max        9025 min
Histogram: 1 0 0 0 0 0 0 0 0 0
Neighs:         334579 ave      334579 max      334579 min
Histogram: 1 0 0 0 0 0 0 0 0 0

Total # of neighbors = 334579
Ave neighs/atom = 30.482781
Neighbor list builds = 10821
Dangerous builds = 0
unfix		2

#Se colecta estadistica
print	  	"Stats collecting starts"
Stats collecting starts
fix		3 all npt temp ${newtemp2} ${newtemp2} 0.1 iso 0.0 0.0 1.0
fix		3 all npt temp 1750 ${newtemp2} 0.1 iso 0.0 0.0 1.0
fix		3 all npt temp 1750 1750 0.1 iso 0.0 0.0 1.0
dump            3 all custom ${ndump} dump.${newtemp2} id type x y z c_peratom fx fy fz
dump            3 all custom 5000 dump.${newtemp2} id type x y z c_peratom fx fy fz
dump            3 all custom 5000 dump.1750 id type x y z c_peratom fx fy fz
dump_modify   	3 element Au Pd

#neigh_modify    once yes
run		${nstat}
run		100000
Last active /omp style is pair_style eam/fs/omp
Per MPI rank memory allocation (min/avg/max) = 14.59 | 14.59 | 14.59 Mbytes
   Step          Temp          PotEng    
   9100000   1741.6458     -38727.636    
   9110000   1757.4659     -38740.721    
   9120000   1734.3445     -38680.983    
   9130000   1749.7323     -38700.603    
   9140000   1724.54       -38696.094    
   9150000   1742.7921     -38713.775    
   9160000   1742.0538     -38710.406    
   9170000   1755.1666     -38709.198    
   9180000   1761.825      -38698.072    
   9190000   1754.297      -38708.258    
   9200000   1758.1364     -38670.283    
Loop time of 1525.61 on 2 procs for 100000 steps with 10976 atoms

Performance: 5.663 ns/day, 4.238 hours/ns, 65.548 timesteps/s, 719.450 katom-step/s
31.2% CPU use with 1 MPI tasks x 2 OpenMP threads

MPI task timing breakdown:
Section |  min time  |  avg time  |  max time  |%varavg| %total
---------------------------------------------------------------
Pair    | 1356.5     | 1356.5     | 1356.5     |   0.0 | 88.91
Neigh   | 79.864     | 79.864     | 79.864     |   0.0 |  5.23
Comm    | 13.731     | 13.731     | 13.731     |   0.0 |  0.90
Output  | 0.76488    | 0.76488    | 0.76488    |   0.0 |  0.05
Modify  | 67.095     | 67.095     | 67.095     |   0.0 |  4.40
Other   |            | 7.672      |            |       |  0.50

Nlocal:          10976 ave       10976 max       10976 min
Histogram: 1 0 0 0 0 0 0 0 0 0
Nghost:           9030 ave        9030 max        9030 min
Histogram: 1 0 0 0 0 0 0 0 0 0
Neighs:         332358 ave      332358 max      332358 min
Histogram: 1 0 0 0 0 0 0 0 0 0

Total # of neighbors = 332358
Ave neighs/atom = 30.28043
Neighbor list builds = 10826
Dangerous builds = 0
unfix		3
undump		3

#if "${newtemp2} > ${temp2}" then "jump SELF break3"
next c
jump SELF loop3
variable	c loop ${n3}
variable	c loop 13
variable	newtemp1 equal (v_c-1)*50+v_tempb
variable	newtemp2 equal v_newtemp1+50

#Rampa de T
print	  	"Temperature ramp starts"
Temperature ramp starts
fix             1 all npt temp ${newtemp1} ${newtemp2} 0.1 iso 0.0 0.0 1.0
fix             1 all npt temp 1750 ${newtemp2} 0.1 iso 0.0 0.0 1.0
fix             1 all npt temp 1750 1800 0.1 iso 0.0 0.0 1.0
run		${nramp}
run		200000
Last active /omp style is pair_style eam/fs/omp
Per MPI rank memory allocation (min/avg/max) = 12.34 | 12.34 | 12.34 Mbytes
   Step          Temp          PotEng    
   9200000   1758.1364     -38670.283    
   9210000   1757.1318     -38706.272    
   9220000   1763.0361     -38678.647    
