 # Fcc Al oriented X=[100] Y=[010] Z=[001].
  
       10976  atoms
           2  atom types
 
      0.000000000000       5.578020000000  xlo xhi
      0.000000000000       5.578020000000  ylo yhi
      0.000000000000       5.578020000000  zlo zhi 
 
Atoms # atomic

1 	 1 	 0.000000000000 	 0.000000000000 	 0.000000000000
2 	 1 	 0.199215000000 	 0.199215000000 	 0.000000000000
3 	 1 	 0.000000000000 	 0.199215000000 	 0.199215000000
4 	 2 	 0.199215000000 	 0.000000000000 	 0.199215000000
5 	 1 	 0.398430000000 	 0.000000000000 	 0.000000000000
6 	 1 	 0.597645000000 	 0.199215000000 	 0.000000000000
7 	 1 	 0.398430000000 	 0.199215000000 	 0.199215000000
8 	 2 	 0.597645000000 	 0.000000000000 	 0.199215000000
9 	 2 	 0.796860000000 	 0.000000000000 	 0.000000000000
10 	 2 	 0.996075000000 	 0.199215000000 	 0.000000000000
11 	 1 	 0.796860000000 	 0.199215000000 	 0.199215000000
12 	 1 	 0.996075000000 	 0.000000000000 	 0.199215000000
13 	 2 	 1.195290000000 	 0.000000000000 	 0.000000000000
14 	 2 	 1.394505000000 	 0.199215000000 	 0.000000000000
15 	 1 	 1.195290000000 	 0.199215000000 	 0.199215000000
16 	 1 	 1.394505000000 	 0.000000000000 	 0.199215000000
17 	 2 	 1.593720000000 	 0.000000000000 	 0.000000000000
18 	 2 	 1.792935000000 	 0.199215000000 	 0.000000000000
19 	 1 	 1.593720000000 	 0.199215000000 	 0.199215000000
20 	 2 	 1.792935000000 	 0.000000000000 	 0.199215000000
21 	 2 	 1.992150000000 	 0.000000000000 	 0.000000000000
22 	 1 	 2.191365000000 	 0.199215000000 	 0.000000000000
23 	 2 	 1.992150000000 	 0.199215000000 	 0.199215000000
24 	 1 	 2.191365000000 	 0.000000000000 	 0.199215000000
25 	 2 	 2.390580000000 	 0.000000000000 	 0.000000000000
26 	 1 	 2.589795000000 	 0.199215000000 	 0.000000000000
27 	 2 	 2.390580000000 	 0.199215000000 	 0.199215000000
28 	 2 	 2.589795000000 	 0.000000000000 	 0.199215000000
29 	 2 	 2.789010000000 	 0.000000000000 	 0.000000000000
30 	 2 	 2.988225000000 	 0.199215000000 	 0.000000000000
31 	 2 	 2.789010000000 	 0.199215000000 	 0.199215000000
32 	 2 	 2.988225000000 	 0.000000000000 	 0.199215000000
33 	 2 	 3.187440000000 	 0.000000000000 	 0.000000000000
34 	 2 	 3.386655000000 	 0.199215000000 	 0.000000000000
35 	 2 	 3.187440000000 	 0.199215000000 	 0.199215000000
36 	 1 	 3.386655000000 	 0.000000000000 	 0.199215000000
37 	 2 	 3.585870000000 	 0.000000000000 	 0.000000000000
38 	 1 	 3.785085000000 	 0.199215000000 	 0.000000000000
39 	 2 	 3.585870000000 	 0.199215000000 	 0.199215000000
40 	 1 	 3.785085000000 	 0.000000000000 	 0.199215000000
41 	 1 	 3.984300000000 	 0.000000000000 	 0.000000000000
42 	 1 	 4.183515000000 	 0.199215000000 	 0.000000000000
43 	 1 	 3.984300000000 	 0.199215000000 	 0.199215000000
44 	 2 	 4.183515000000 	 0.000000000000 	 0.199215000000
45 	 2 	 4.382730000000 	 0.000000000000 	 0.000000000000
46 	 2 	 4.581945000000 	 0.199215000000 	 0.000000000000
47 	 2 	 4.382730000000 	 0.199215000000 	 0.199215000000
48 	 2 	 4.581945000000 	 0.000000000000 	 0.199215000000
49 	 1 	 4.781160000000 	 0.000000000000 	 0.000000000000
50 	 2 	 4.980375000000 	 0.199215000000 	 0.000000000000
51 	 1 	 4.781160000000 	 0.199215000000 	 0.199215000000
52 	 2 	 4.980375000000 	 0.000000000000 	 0.199215000000
53 	 1 	 5.179590000000 	 0.000000000000 	 0.000000000000
54 	 1 	 5.378805000000 	 0.199215000000 	 0.000000000000
55 	 1 	 5.179590000000 	 0.199215000000 	 0.199215000000
56 	 1 	 5.378805000000 	 0.000000000000 	 0.199215000000
57 	 1 	 0.000000000000 	 0.398430000000 	 0.000000000000
58 	 2 	 0.199215000000 	 0.597645000000 	 0.000000000000
59 	 2 	 0.000000000000 	 0.597645000000 	 0.199215000000
60 	 1 	 0.199215000000 	 0.398430000000 	 0.199215000000
61 	 1 	 0.398430000000 	 0.398430000000 	 0.000000000000
62 	 2 	 0.597645000000 	 0.597645000000 	 0.000000000000
63 	 1 	 0.398430000000 	 0.597645000000 	 0.199215000000
64 	 1 	 0.597645000000 	 0.398430000000 	 0.199215000000
65 	 1 	 0.796860000000 	 0.398430000000 	 0.000000000000
66 	 2 	 0.996075000000 	 0.597645000000 	 0.000000000000
67 	 1 	 0.796860000000 	 0.597645000000 	 0.199215000000
68 	 2 	 0.996075000000 	 0.398430000000 	 0.199215000000
69 	 1 	 1.195290000000 	 0.398430000000 	 0.000000000000
70 	 2 	 1.394505000000 	 0.597645000000 	 0.000000000000
71 	 2 	 1.195290000000 	 0.597645000000 	 0.199215000000
72 	 1 	 1.394505000000 	 0.398430000000 	 0.199215000000
73 	 2 	 1.593720000000 	 0.398430000000 	 0.000000000000
74 	 1 	 1.792935000000 	 0.597645000000 	 0.000000000000
75 	 2 	 1.593720000000 	 0.597645000000 	 0.199215000000
76 	 2 	 1.792935000000 	 0.398430000000 	 0.199215000000
77 	 1 	 1.992150000000 	 0.398430000000 	 0.000000000000
78 	 2 	 2.191365000000 	 0.597645000000 	 0.000000000000
79 	 2 	 1.992150000000 	 0.597645000000 	 0.199215000000
80 	 1 	 2.191365000000 	 0.398430000000 	 0.199215000000
81 	 2 	 2.390580000000 	 0.398430000000 	 0.000000000000
82 	 2 	 2.589795000000 	 0.597645000000 	 0.000000000000
83 	 2 	 2.390580000000 	 0.597645000000 	 0.199215000000
84 	 1 	 2.589795000000 	 0.398430000000 	 0.199215000000
85 	 1 	 2.789010000000 	 0.398430000000 	 0.000000000000
86 	 1 	 2.988225000000 	 0.597645000000 	 0.000000000000
87 	 2 	 2.789010000000 	 0.597645000000 	 0.199215000000
88 	 1 	 2.988225000000 	 0.398430000000 	 0.199215000000
89 	 1 	 3.187440000000 	 0.398430000000 	 0.000000000000
90 	 1 	 3.386655000000 	 0.597645000000 	 0.000000000000
91 	 1 	 3.187440000000 	 0.597645000000 	 0.199215000000
92 	 2 	 3.386655000000 	 0.398430000000 	 0.199215000000
93 	 2 	 3.585870000000 	 0.398430000000 	 0.000000000000
94 	 1 	 3.785085000000 	 0.597645000000 	 0.000000000000
95 	 2 	 3.585870000000 	 0.597645000000 	 0.199215000000
96 	 2 	 3.785085000000 	 0.398430000000 	 0.199215000000
97 	 1 	 3.984300000000 	 0.398430000000 	 0.000000000000
98 	 1 	 4.183515000000 	 0.597645000000 	 0.000000000000
99 	 1 	 3.984300000000 	 0.597645000000 	 0.199215000000
100 	 2 	 4.183515000000 	 0.398430000000 	 0.199215000000
101 	 1 	 4.382730000000 	 0.398430000000 	 0.000000000000
102 	 2 	 4.581945000000 	 0.597645000000 	 0.000000000000
103 	 2 	 4.382730000000 	 0.597645000000 	 0.199215000000
104 	 1 	 4.581945000000 	 0.398430000000 	 0.199215000000
105 	 2 	 4.781160000000 	 0.398430000000 	 0.000000000000
106 	 2 	 4.980375000000 	 0.597645000000 	 0.000000000000
107 	 1 	 4.781160000000 	 0.597645000000 	 0.199215000000
108 	 2 	 4.980375000000 	 0.398430000000 	 0.199215000000
109 	 2 	 5.179590000000 	 0.398430000000 	 0.000000000000
110 	 2 	 5.378805000000 	 0.597645000000 	 0.000000000000
111 	 2 	 5.179590000000 	 0.597645000000 	 0.199215000000
112 	 2 	 5.378805000000 	 0.398430000000 	 0.199215000000
113 	 1 	 0.000000000000 	 0.796860000000 	 0.000000000000
114 	 1 	 0.199215000000 	 0.996075000000 	 0.000000000000
115 	 2 	 0.000000000000 	 0.996075000000 	 0.199215000000
116 	 2 	 0.199215000000 	 0.796860000000 	 0.199215000000
117 	 1 	 0.398430000000 	 0.796860000000 	 0.000000000000
118 	 1 	 0.597645000000 	 0.996075000000 	 0.000000000000
119 	 1 	 0.398430000000 	 0.996075000000 	 0.199215000000
120 	 1 	 0.597645000000 	 0.796860000000 	 0.199215000000
121 	 1 	 0.796860000000 	 0.796860000000 	 0.000000000000
122 	 1 	 0.996075000000 	 0.996075000000 	 0.000000000000
123 	 2 	 0.796860000000 	 0.996075000000 	 0.199215000000
124 	 2 	 0.996075000000 	 0.796860000000 	 0.199215000000
125 	 1 	 1.195290000000 	 0.796860000000 	 0.000000000000
126 	 1 	 1.394505000000 	 0.996075000000 	 0.000000000000
127 	 2 	 1.195290000000 	 0.996075000000 	 0.199215000000
128 	 2 	 1.394505000000 	 0.796860000000 	 0.199215000000
129 	 1 	 1.593720000000 	 0.796860000000 	 0.000000000000
130 	 2 	 1.792935000000 	 0.996075000000 	 0.000000000000
131 	 1 	 1.593720000000 	 0.996075000000 	 0.199215000000
132 	 2 	 1.792935000000 	 0.796860000000 	 0.199215000000
133 	 1 	 1.992150000000 	 0.796860000000 	 0.000000000000
134 	 2 	 2.191365000000 	 0.996075000000 	 0.000000000000
135 	 2 	 1.992150000000 	 0.996075000000 	 0.199215000000
136 	 1 	 2.191365000000 	 0.796860000000 	 0.199215000000
137 	 1 	 2.390580000000 	 0.796860000000 	 0.000000000000
138 	 1 	 2.589795000000 	 0.996075000000 	 0.000000000000
139 	 1 	 2.390580000000 	 0.996075000000 	 0.199215000000
140 	 2 	 2.589795000000 	 0.796860000000 	 0.199215000000
141 	 2 	 2.789010000000 	 0.796860000000 	 0.000000000000
142 	 1 	 2.988225000000 	 0.996075000000 	 0.000000000000
143 	 1 	 2.789010000000 	 0.996075000000 	 0.199215000000
144 	 1 	 2.988225000000 	 0.796860000000 	 0.199215000000
145 	 2 	 3.187440000000 	 0.796860000000 	 0.000000000000
146 	 2 	 3.386655000000 	 0.996075000000 	 0.000000000000
147 	 1 	 3.187440000000 	 0.996075000000 	 0.199215000000
148 	 2 	 3.386655000000 	 0.796860000000 	 0.199215000000
149 	 2 	 3.585870000000 	 0.796860000000 	 0.000000000000
150 	 2 	 3.785085000000 	 0.996075000000 	 0.000000000000
151 	 2 	 3.585870000000 	 0.996075000000 	 0.199215000000
152 	 1 	 3.785085000000 	 0.796860000000 	 0.199215000000
153 	 2 	 3.984300000000 	 0.796860000000 	 0.000000000000
154 	 1 	 4.183515000000 	 0.996075000000 	 0.000000000000
155 	 1 	 3.984300000000 	 0.996075000000 	 0.199215000000
156 	 2 	 4.183515000000 	 0.796860000000 	 0.199215000000
157 	 1 	 4.382730000000 	 0.796860000000 	 0.000000000000
158 	 2 	 4.581945000000 	 0.996075000000 	 0.000000000000
159 	 1 	 4.382730000000 	 0.996075000000 	 0.199215000000
160 	 1 	 4.581945000000 	 0.796860000000 	 0.199215000000
161 	 2 	 4.781160000000 	 0.796860000000 	 0.000000000000
162 	 1 	 4.980375000000 	 0.996075000000 	 0.000000000000
163 	 2 	 4.781160000000 	 0.996075000000 	 0.199215000000
164 	 1 	 4.980375000000 	 0.796860000000 	 0.199215000000
165 	 2 	 5.179590000000 	 0.796860000000 	 0.000000000000
166 	 2 	 5.378805000000 	 0.996075000000 	 0.000000000000
167 	 1 	 5.179590000000 	 0.996075000000 	 0.199215000000
168 	 1 	 5.378805000000 	 0.796860000000 	 0.199215000000
169 	 1 	 0.000000000000 	 1.195290000000 	 0.000000000000
170 	 2 	 0.199215000000 	 1.394505000000 	 0.000000000000
171 	 2 	 0.000000000000 	 1.394505000000 	 0.199215000000
172 	 1 	 0.199215000000 	 1.195290000000 	 0.199215000000
173 	 2 	 0.398430000000 	 1.195290000000 	 0.000000000000
174 	 2 	 0.597645000000 	 1.394505000000 	 0.000000000000
175 	 2 	 0.398430000000 	 1.394505000000 	 0.199215000000
176 	 1 	 0.597645000000 	 1.195290000000 	 0.199215000000
177 	 2 	 0.796860000000 	 1.195290000000 	 0.000000000000
178 	 1 	 0.996075000000 	 1.394505000000 	 0.000000000000
179 	 2 	 0.796860000000 	 1.394505000000 	 0.199215000000
180 	 2 	 0.996075000000 	 1.195290000000 	 0.199215000000
181 	 2 	 1.195290000000 	 1.195290000000 	 0.000000000000
182 	 2 	 1.394505000000 	 1.394505000000 	 0.000000000000
183 	 1 	 1.195290000000 	 1.394505000000 	 0.199215000000
184 	 1 	 1.394505000000 	 1.195290000000 	 0.199215000000
185 	 1 	 1.593720000000 	 1.195290000000 	 0.000000000000
186 	 1 	 1.792935000000 	 1.394505000000 	 0.000000000000
187 	 1 	 1.593720000000 	 1.394505000000 	 0.199215000000
188 	 1 	 1.792935000000 	 1.195290000000 	 0.199215000000
189 	 2 	 1.992150000000 	 1.195290000000 	 0.000000000000
190 	 1 	 2.191365000000 	 1.394505000000 	 0.000000000000
191 	 2 	 1.992150000000 	 1.394505000000 	 0.199215000000
192 	 2 	 2.191365000000 	 1.195290000000 	 0.199215000000
193 	 2 	 2.390580000000 	 1.195290000000 	 0.000000000000
194 	 1 	 2.589795000000 	 1.394505000000 	 0.000000000000
195 	 1 	 2.390580000000 	 1.394505000000 	 0.199215000000
196 	 1 	 2.589795000000 	 1.195290000000 	 0.199215000000
197 	 1 	 2.789010000000 	 1.195290000000 	 0.000000000000
198 	 2 	 2.988225000000 	 1.394505000000 	 0.000000000000
199 	 2 	 2.789010000000 	 1.394505000000 	 0.199215000000
200 	 2 	 2.988225000000 	 1.195290000000 	 0.199215000000
201 	 1 	 3.187440000000 	 1.195290000000 	 0.000000000000
202 	 1 	 3.386655000000 	 1.394505000000 	 0.000000000000
203 	 2 	 3.187440000000 	 1.394505000000 	 0.199215000000
204 	 1 	 3.386655000000 	 1.195290000000 	 0.199215000000
205 	 2 	 3.585870000000 	 1.195290000000 	 0.000000000000
206 	 1 	 3.785085000000 	 1.394505000000 	 0.000000000000
207 	 1 	 3.585870000000 	 1.394505000000 	 0.199215000000
208 	 1 	 3.785085000000 	 1.195290000000 	 0.199215000000
209 	 2 	 3.984300000000 	 1.195290000000 	 0.000000000000
210 	 2 	 4.183515000000 	 1.394505000000 	 0.000000000000
211 	 2 	 3.984300000000 	 1.394505000000 	 0.199215000000
212 	 2 	 4.183515000000 	 1.195290000000 	 0.199215000000
213 	 1 	 4.382730000000 	 1.195290000000 	 0.000000000000
214 	 2 	 4.581945000000 	 1.394505000000 	 0.000000000000
215 	 1 	 4.382730000000 	 1.394505000000 	 0.199215000000
216 	 2 	 4.581945000000 	 1.195290000000 	 0.199215000000
217 	 2 	 4.781160000000 	 1.195290000000 	 0.000000000000
218 	 1 	 4.980375000000 	 1.394505000000 	 0.000000000000
219 	 1 	 4.781160000000 	 1.394505000000 	 0.199215000000
220 	 2 	 4.980375000000 	 1.195290000000 	 0.199215000000
221 	 2 	 5.179590000000 	 1.195290000000 	 0.000000000000
222 	 2 	 5.378805000000 	 1.394505000000 	 0.000000000000
223 	 1 	 5.179590000000 	 1.394505000000 	 0.199215000000
224 	 1 	 5.378805000000 	 1.195290000000 	 0.199215000000
225 	 2 	 0.000000000000 	 1.593720000000 	 0.000000000000
226 	 1 	 0.199215000000 	 1.792935000000 	 0.000000000000
227 	 2 	 0.000000000000 	 1.792935000000 	 0.199215000000
228 	 2 	 0.199215000000 	 1.593720000000 	 0.199215000000
229 	 2 	 0.398430000000 	 1.593720000000 	 0.000000000000
230 	 2 	 0.597645000000 	 1.792935000000 	 0.000000000000
231 	 2 	 0.398430000000 	 1.792935000000 	 0.199215000000
232 	 1 	 0.597645000000 	 1.593720000000 	 0.199215000000
233 	 1 	 0.796860000000 	 1.593720000000 	 0.000000000000
234 	 1 	 0.996075000000 	 1.792935000000 	 0.000000000000
235 	 2 	 0.796860000000 	 1.792935000000 	 0.199215000000
236 	 2 	 0.996075000000 	 1.593720000000 	 0.199215000000
237 	 2 	 1.195290000000 	 1.593720000000 	 0.000000000000
238 	 2 	 1.394505000000 	 1.792935000000 	 0.000000000000
239 	 1 	 1.195290000000 	 1.792935000000 	 0.199215000000
240 	 2 	 1.394505000000 	 1.593720000000 	 0.199215000000
241 	 2 	 1.593720000000 	 1.593720000000 	 0.000000000000
242 	 1 	 1.792935000000 	 1.792935000000 	 0.000000000000
243 	 1 	 1.593720000000 	 1.792935000000 	 0.199215000000
244 	 2 	 1.792935000000 	 1.593720000000 	 0.199215000000
245 	 2 	 1.992150000000 	 1.593720000000 	 0.000000000000
246 	 1 	 2.191365000000 	 1.792935000000 	 0.000000000000
247 	 1 	 1.992150000000 	 1.792935000000 	 0.199215000000
248 	 1 	 2.191365000000 	 1.593720000000 	 0.199215000000
249 	 2 	 2.390580000000 	 1.593720000000 	 0.000000000000
250 	 1 	 2.589795000000 	 1.792935000000 	 0.000000000000
251 	 1 	 2.390580000000 	 1.792935000000 	 0.199215000000
252 	 1 	 2.589795000000 	 1.593720000000 	 0.199215000000
253 	 1 	 2.789010000000 	 1.593720000000 	 0.000000000000
254 	 2 	 2.988225000000 	 1.792935000000 	 0.000000000000
255 	 1 	 2.789010000000 	 1.792935000000 	 0.199215000000
256 	 2 	 2.988225000000 	 1.593720000000 	 0.199215000000
257 	 2 	 3.187440000000 	 1.593720000000 	 0.000000000000
258 	 2 	 3.386655000000 	 1.792935000000 	 0.000000000000
259 	 1 	 3.187440000000 	 1.792935000000 	 0.199215000000
260 	 2 	 3.386655000000 	 1.593720000000 	 0.199215000000
261 	 1 	 3.585870000000 	 1.593720000000 	 0.000000000000
262 	 1 	 3.785085000000 	 1.792935000000 	 0.000000000000
263 	 2 	 3.585870000000 	 1.792935000000 	 0.199215000000
264 	 2 	 3.785085000000 	 1.593720000000 	 0.199215000000
265 	 2 	 3.984300000000 	 1.593720000000 	 0.000000000000
266 	 1 	 4.183515000000 	 1.792935000000 	 0.000000000000
267 	 1 	 3.984300000000 	 1.792935000000 	 0.199215000000
268 	 2 	 4.183515000000 	 1.593720000000 	 0.199215000000
269 	 2 	 4.382730000000 	 1.593720000000 	 0.000000000000
270 	 1 	 4.581945000000 	 1.792935000000 	 0.000000000000
271 	 1 	 4.382730000000 	 1.792935000000 	 0.199215000000
272 	 2 	 4.581945000000 	 1.593720000000 	 0.199215000000
273 	 2 	 4.781160000000 	 1.593720000000 	 0.000000000000
274 	 1 	 4.980375000000 	 1.792935000000 	 0.000000000000
275 	 2 	 4.781160000000 	 1.792935000000 	 0.199215000000
276 	 1 	 4.980375000000 	 1.593720000000 	 0.199215000000
277 	 1 	 5.179590000000 	 1.593720000000 	 0.000000000000
278 	 1 	 5.378805000000 	 1.792935000000 	 0.000000000000
279 	 2 	 5.179590000000 	 1.792935000000 	 0.199215000000
280 	 2 	 5.378805000000 	 1.593720000000 	 0.199215000000
281 	 1 	 0.000000000000 	 1.992150000000 	 0.000000000000
282 	 1 	 0.199215000000 	 2.191365000000 	 0.000000000000
283 	 2 	 0.000000000000 	 2.191365000000 	 0.199215000000
284 	 1 	 0.199215000000 	 1.992150000000 	 0.199215000000
285 	 2 	 0.398430000000 	 1.992150000000 	 0.000000000000
286 	 1 	 0.597645000000 	 2.191365000000 	 0.000000000000
287 	 2 	 0.398430000000 	 2.191365000000 	 0.199215000000
288 	 2 	 0.597645000000 	 1.992150000000 	 0.199215000000
289 	 1 	 0.796860000000 	 1.992150000000 	 0.000000000000
290 	 1 	 0.996075000000 	 2.191365000000 	 0.000000000000
291 	 1 	 0.796860000000 	 2.191365000000 	 0.199215000000
292 	 1 	 0.996075000000 	 1.992150000000 	 0.199215000000
293 	 1 	 1.195290000000 	 1.992150000000 	 0.000000000000
294 	 2 	 1.394505000000 	 2.191365000000 	 0.000000000000
295 	 2 	 1.195290000000 	 2.191365000000 	 0.199215000000
296 	 2 	 1.394505000000 	 1.992150000000 	 0.199215000000
297 	 1 	 1.593720000000 	 1.992150000000 	 0.000000000000
298 	 1 	 1.792935000000 	 2.191365000000 	 0.000000000000
299 	 2 	 1.593720000000 	 2.191365000000 	 0.199215000000
300 	 1 	 1.792935000000 	 1.992150000000 	 0.199215000000
301 	 2 	 1.992150000000 	 1.992150000000 	 0.000000000000
302 	 1 	 2.191365000000 	 2.191365000000 	 0.000000000000
303 	 2 	 1.992150000000 	 2.191365000000 	 0.199215000000
304 	 1 	 2.191365000000 	 1.992150000000 	 0.199215000000
305 	 1 	 2.390580000000 	 1.992150000000 	 0.000000000000
306 	 1 	 2.589795000000 	 2.191365000000 	 0.000000000000
307 	 2 	 2.390580000000 	 2.191365000000 	 0.199215000000
308 	 1 	 2.589795000000 	 1.992150000000 	 0.199215000000
309 	 1 	 2.789010000000 	 1.992150000000 	 0.000000000000
310 	 2 	 2.988225000000 	 2.191365000000 	 0.000000000000
311 	 2 	 2.789010000000 	 2.191365000000 	 0.199215000000
312 	 2 	 2.988225000000 	 1.992150000000 	 0.199215000000
313 	 2 	 3.187440000000 	 1.992150000000 	 0.000000000000
314 	 1 	 3.386655000000 	 2.191365000000 	 0.000000000000
315 	 2 	 3.187440000000 	 2.191365000000 	 0.199215000000
316 	 2 	 3.386655000000 	 1.992150000000 	 0.199215000000
317 	 2 	 3.585870000000 	 1.992150000000 	 0.000000000000
318 	 1 	 3.785085000000 	 2.191365000000 	 0.000000000000
319 	 1 	 3.585870000000 	 2.191365000000 	 0.199215000000
320 	 2 	 3.785085000000 	 1.992150000000 	 0.199215000000
321 	 2 	 3.984300000000 	 1.992150000000 	 0.000000000000
322 	 2 	 4.183515000000 	 2.191365000000 	 0.000000000000
323 	 1 	 3.984300000000 	 2.191365000000 	 0.199215000000
324 	 2 	 4.183515000000 	 1.992150000000 	 0.199215000000
325 	 1 	 4.382730000000 	 1.992150000000 	 0.000000000000
326 	 1 	 4.581945000000 	 2.191365000000 	 0.000000000000
327 	 2 	 4.382730000000 	 2.191365000000 	 0.199215000000
328 	 2 	 4.581945000000 	 1.992150000000 	 0.199215000000
329 	 2 	 4.781160000000 	 1.992150000000 	 0.000000000000
330 	 2 	 4.980375000000 	 2.191365000000 	 0.000000000000
331 	 1 	 4.781160000000 	 2.191365000000 	 0.199215000000
332 	 2 	 4.980375000000 	 1.992150000000 	 0.199215000000
333 	 2 	 5.179590000000 	 1.992150000000 	 0.000000000000
334 	 1 	 5.378805000000 	 2.191365000000 	 0.000000000000
335 	 2 	 5.179590000000 	 2.191365000000 	 0.199215000000
336 	 1 	 5.378805000000 	 1.992150000000 	 0.199215000000
337 	 2 	 0.000000000000 	 2.390580000000 	 0.000000000000
338 	 1 	 0.199215000000 	 2.589795000000 	 0.000000000000
339 	 1 	 0.000000000000 	 2.589795000000 	 0.199215000000
340 	 2 	 0.199215000000 	 2.390580000000 	 0.199215000000
341 	 1 	 0.398430000000 	 2.390580000000 	 0.000000000000
342 	 1 	 0.597645000000 	 2.589795000000 	 0.000000000000
343 	 2 	 0.398430000000 	 2.589795000000 	 0.199215000000
344 	 1 	 0.597645000000 	 2.390580000000 	 0.199215000000
345 	 1 	 0.796860000000 	 2.390580000000 	 0.000000000000
346 	 1 	 0.996075000000 	 2.589795000000 	 0.000000000000
347 	 1 	 0.796860000000 	 2.589795000000 	 0.199215000000
348 	 1 	 0.996075000000 	 2.390580000000 	 0.199215000000
349 	 1 	 1.195290000000 	 2.390580000000 	 0.000000000000
350 	 2 	 1.394505000000 	 2.589795000000 	 0.000000000000
351 	 2 	 1.195290000000 	 2.589795000000 	 0.199215000000
352 	 2 	 1.394505000000 	 2.390580000000 	 0.199215000000
353 	 1 	 1.593720000000 	 2.390580000000 	 0.000000000000
354 	 1 	 1.792935000000 	 2.589795000000 	 0.000000000000
355 	 1 	 1.593720000000 	 2.589795000000 	 0.199215000000
356 	 1 	 1.792935000000 	 2.390580000000 	 0.199215000000
357 	 1 	 1.992150000000 	 2.390580000000 	 0.000000000000
358 	 1 	 2.191365000000 	 2.589795000000 	 0.000000000000
359 	 2 	 1.992150000000 	 2.589795000000 	 0.199215000000
360 	 1 	 2.191365000000 	 2.390580000000 	 0.199215000000
361 	 1 	 2.390580000000 	 2.390580000000 	 0.000000000000
362 	 2 	 2.589795000000 	 2.589795000000 	 0.000000000000
363 	 1 	 2.390580000000 	 2.589795000000 	 0.199215000000
364 	 1 	 2.589795000000 	 2.390580000000 	 0.199215000000
365 	 2 	 2.789010000000 	 2.390580000000 	 0.000000000000
366 	 2 	 2.988225000000 	 2.589795000000 	 0.000000000000
367 	 2 	 2.789010000000 	 2.589795000000 	 0.199215000000
368 	 1 	 2.988225000000 	 2.390580000000 	 0.199215000000
369 	 2 	 3.187440000000 	 2.390580000000 	 0.000000000000
370 	 2 	 3.386655000000 	 2.589795000000 	 0.000000000000
371 	 2 	 3.187440000000 	 2.589795000000 	 0.199215000000
372 	 2 	 3.386655000000 	 2.390580000000 	 0.199215000000
373 	 2 	 3.585870000000 	 2.390580000000 	 0.000000000000
374 	 2 	 3.785085000000 	 2.589795000000 	 0.000000000000
375 	 2 	 3.585870000000 	 2.589795000000 	 0.199215000000
376 	 2 	 3.785085000000 	 2.390580000000 	 0.199215000000
377 	 1 	 3.984300000000 	 2.390580000000 	 0.000000000000
378 	 1 	 4.183515000000 	 2.589795000000 	 0.000000000000
379 	 2 	 3.984300000000 	 2.589795000000 	 0.199215000000
380 	 1 	 4.183515000000 	 2.390580000000 	 0.199215000000
381 	 1 	 4.382730000000 	 2.390580000000 	 0.000000000000
382 	 2 	 4.581945000000 	 2.589795000000 	 0.000000000000
383 	 2 	 4.382730000000 	 2.589795000000 	 0.199215000000
384 	 1 	 4.581945000000 	 2.390580000000 	 0.199215000000
385 	 1 	 4.781160000000 	 2.390580000000 	 0.000000000000
386 	 2 	 4.980375000000 	 2.589795000000 	 0.000000000000
387 	 1 	 4.781160000000 	 2.589795000000 	 0.199215000000
388 	 2 	 4.980375000000 	 2.390580000000 	 0.199215000000
389 	 2 	 5.179590000000 	 2.390580000000 	 0.000000000000
390 	 2 	 5.378805000000 	 2.589795000000 	 0.000000000000
391 	 1 	 5.179590000000 	 2.589795000000 	 0.199215000000
392 	 2 	 5.378805000000 	 2.390580000000 	 0.199215000000
393 	 2 	 0.000000000000 	 2.789010000000 	 0.000000000000
394 	 1 	 0.199215000000 	 2.988225000000 	 0.000000000000
395 	 2 	 0.000000000000 	 2.988225000000 	 0.199215000000
396 	 1 	 0.199215000000 	 2.789010000000 	 0.199215000000
397 	 2 	 0.398430000000 	 2.789010000000 	 0.000000000000
398 	 2 	 0.597645000000 	 2.988225000000 	 0.000000000000
399 	 2 	 0.398430000000 	 2.988225000000 	 0.199215000000
400 	 2 	 0.597645000000 	 2.789010000000 	 0.199215000000
401 	 1 	 0.796860000000 	 2.789010000000 	 0.000000000000
402 	 1 	 0.996075000000 	 2.988225000000 	 0.000000000000
403 	 2 	 0.796860000000 	 2.988225000000 	 0.199215000000
404 	 2 	 0.996075000000 	 2.789010000000 	 0.199215000000
405 	 1 	 1.195290000000 	 2.789010000000 	 0.000000000000
406 	 1 	 1.394505000000 	 2.988225000000 	 0.000000000000
407 	 1 	 1.195290000000 	 2.988225000000 	 0.199215000000
408 	 2 	 1.394505000000 	 2.789010000000 	 0.199215000000
409 	 2 	 1.593720000000 	 2.789010000000 	 0.000000000000
410 	 1 	 1.792935000000 	 2.988225000000 	 0.000000000000
411 	 1 	 1.593720000000 	 2.988225000000 	 0.199215000000
412 	 2 	 1.792935000000 	 2.789010000000 	 0.199215000000
413 	 2 	 1.992150000000 	 2.789010000000 	 0.000000000000
414 	 2 	 2.191365000000 	 2.988225000000 	 0.000000000000
415 	 1 	 1.992150000000 	 2.988225000000 	 0.199215000000
416 	 2 	 2.191365000000 	 2.789010000000 	 0.199215000000
417 	 1 	 2.390580000000 	 2.789010000000 	 0.000000000000
418 	 1 	 2.589795000000 	 2.988225000000 	 0.000000000000
419 	 2 	 2.390580000000 	 2.988225000000 	 0.199215000000
420 	 1 	 2.589795000000 	 2.789010000000 	 0.199215000000
421 	 2 	 2.789010000000 	 2.789010000000 	 0.000000000000
422 	 1 	 2.988225000000 	 2.988225000000 	 0.000000000000
423 	 2 	 2.789010000000 	 2.988225000000 	 0.199215000000
424 	 1 	 2.988225000000 	 2.789010000000 	 0.199215000000
425 	 2 	 3.187440000000 	 2.789010000000 	 0.000000000000
426 	 1 	 3.386655000000 	 2.988225000000 	 0.000000000000
427 	 1 	 3.187440000000 	 2.988225000000 	 0.199215000000
428 	 1 	 3.386655000000 	 2.789010000000 	 0.199215000000
429 	 2 	 3.585870000000 	 2.789010000000 	 0.000000000000
430 	 1 	 3.785085000000 	 2.988225000000 	 0.000000000000
431 	 2 	 3.585870000000 	 2.988225000000 	 0.199215000000
432 	 1 	 3.785085000000 	 2.789010000000 	 0.199215000000
433 	 1 	 3.984300000000 	 2.789010000000 	 0.000000000000
434 	 1 	 4.183515000000 	 2.988225000000 	 0.000000000000
435 	 1 	 3.984300000000 	 2.988225000000 	 0.199215000000
436 	 1 	 4.183515000000 	 2.789010000000 	 0.199215000000
437 	 2 	 4.382730000000 	 2.789010000000 	 0.000000000000
438 	 2 	 4.581945000000 	 2.988225000000 	 0.000000000000
439 	 2 	 4.382730000000 	 2.988225000000 	 0.199215000000
440 	 1 	 4.581945000000 	 2.789010000000 	 0.199215000000
441 	 2 	 4.781160000000 	 2.789010000000 	 0.000000000000
442 	 1 	 4.980375000000 	 2.988225000000 	 0.000000000000
443 	 2 	 4.781160000000 	 2.988225000000 	 0.199215000000
444 	 1 	 4.980375000000 	 2.789010000000 	 0.199215000000
445 	 2 	 5.179590000000 	 2.789010000000 	 0.000000000000
446 	 2 	 5.378805000000 	 2.988225000000 	 0.000000000000
447 	 1 	 5.179590000000 	 2.988225000000 	 0.199215000000
448 	 2 	 5.378805000000 	 2.789010000000 	 0.199215000000
449 	 2 	 0.000000000000 	 3.187440000000 	 0.000000000000
450 	 2 	 0.199215000000 	 3.386655000000 	 0.000000000000
451 	 2 	 0.000000000000 	 3.386655000000 	 0.199215000000
452 	 2 	 0.199215000000 	 3.187440000000 	 0.199215000000
453 	 2 	 0.398430000000 	 3.187440000000 	 0.000000000000
454 	 2 	 0.597645000000 	 3.386655000000 	 0.000000000000
455 	 2 	 0.398430000000 	 3.386655000000 	 0.199215000000
456 	 2 	 0.597645000000 	 3.187440000000 	 0.199215000000
457 	 1 	 0.796860000000 	 3.187440000000 	 0.000000000000
458 	 2 	 0.996075000000 	 3.386655000000 	 0.000000000000
459 	 1 	 0.796860000000 	 3.386655000000 	 0.199215000000
460 	 2 	 0.996075000000 	 3.187440000000 	 0.199215000000
461 	 2 	 1.195290000000 	 3.187440000000 	 0.000000000000
462 	 1 	 1.394505000000 	 3.386655000000 	 0.000000000000
463 	 2 	 1.195290000000 	 3.386655000000 	 0.199215000000
464 	 2 	 1.394505000000 	 3.187440000000 	 0.199215000000
465 	 2 	 1.593720000000 	 3.187440000000 	 0.000000000000
466 	 1 	 1.792935000000 	 3.386655000000 	 0.000000000000
467 	 1 	 1.593720000000 	 3.386655000000 	 0.199215000000
468 	 2 	 1.792935000000 	 3.187440000000 	 0.199215000000
469 	 1 	 1.992150000000 	 3.187440000000 	 0.000000000000
470 	 2 	 2.191365000000 	 3.386655000000 	 0.000000000000
471 	 2 	 1.992150000000 	 3.386655000000 	 0.199215000000
472 	 2 	 2.191365000000 	 3.187440000000 	 0.199215000000
473 	 2 	 2.390580000000 	 3.187440000000 	 0.000000000000
474 	 2 	 2.589795000000 	 3.386655000000 	 0.000000000000
475 	 1 	 2.390580000000 	 3.386655000000 	 0.199215000000
476 	 2 	 2.589795000000 	 3.187440000000 	 0.199215000000
477 	 2 	 2.789010000000 	 3.187440000000 	 0.000000000000
478 	 2 	 2.988225000000 	 3.386655000000 	 0.000000000000
479 	 1 	 2.789010000000 	 3.386655000000 	 0.199215000000
480 	 1 	 2.988225000000 	 3.187440000000 	 0.199215000000
481 	 2 	 3.187440000000 	 3.187440000000 	 0.000000000000
482 	 2 	 3.386655000000 	 3.386655000000 	 0.000000000000
483 	 2 	 3.187440000000 	 3.386655000000 	 0.199215000000
484 	 1 	 3.386655000000 	 3.187440000000 	 0.199215000000
485 	 1 	 3.585870000000 	 3.187440000000 	 0.000000000000
486 	 2 	 3.785085000000 	 3.386655000000 	 0.000000000000
487 	 1 	 3.585870000000 	 3.386655000000 	 0.199215000000
488 	 2 	 3.785085000000 	 3.187440000000 	 0.199215000000
489 	 1 	 3.984300000000 	 3.187440000000 	 0.000000000000
490 	 2 	 4.183515000000 	 3.386655000000 	 0.000000000000
491 	 2 	 3.984300000000 	 3.386655000000 	 0.199215000000
492 	 1 	 4.183515000000 	 3.187440000000 	 0.199215000000
493 	 2 	 4.382730000000 	 3.187440000000 	 0.000000000000
494 	 2 	 4.581945000000 	 3.386655000000 	 0.000000000000
495 	 1 	 4.382730000000 	 3.386655000000 	 0.199215000000
496 	 1 	 4.581945000000 	 3.187440000000 	 0.199215000000
497 	 1 	 4.781160000000 	 3.187440000000 	 0.000000000000