LAMMPS (22 Dec 2022)
OMP_NUM_THREADS environment is not set. Defaulting to 1 thread. (src/comm.cpp:98)
  using 1 OpenMP thread(s) per MPI task
package omp 4
set 4 OpenMP thread(s) per MPI task
using multi-threaded neighbor list subroutines

# INITIALIZATION
dimension 3
boundary p p p
units metal
atom_style atomic
atom_modify map array

# ATOM DEFINITION
read_data	atoms14.lmp
Reading data file ...
  orthogonal box = (0 0 0) to (54.46 54.46 54.46)
  1 by 1 by 1 MPI processor grid
  reading atoms ...
  10976 atoms
  read_data CPU = 0.034 seconds

# DEFINE INTERATOMIC POTENTIAL
pair_style eam/fs
pair_coeff * * AuPd.fs Au Pd
neigh_modify every 1 delay 1 check yes

#Langevin random seed
variable r equal 57085
variable t equal 4000
variable d equal 1

# initialize
velocity all create $t 28459 rot yes dist gaussian mom yes
velocity all create 4000 28459 rot yes dist gaussian mom yes
reset_timestep 0

# fixes
fix      1 all nvt temp $t $t $d pchain 8 drag 1.0
fix      1 all nvt temp 4000 $t $d pchain 8 drag 1.0
fix      1 all nvt temp 4000 4000 $d pchain 8 drag 1.0
fix      1 all nvt temp 4000 4000 1 pchain 8 drag 1.0

#
timestep 2e-3

# output
#                    1    2    3  4  5     6   7  8  9  10 11 12
thermo_style  custom step temp pe ke press vol lx ly lz xy xz yz
thermo  100

restart 2000000 restart.one restart.two

dump    	3 all custom 100000 Au_liquid.lmp id type x y z
dump    	4 all atom 100000 Dump_Au.lmp

# execution
run 	 2000000
No /omp style for force computation currently active
Neighbor list info ...
  update: every = 1 steps, delay = 1 steps, check = yes
  max neighbors/atom: 2000, page size: 100000
  master list distance cutoff = 8.5
  ghost atom cutoff = 8.5
  binsize = 4.25, bins = 13 13 13
  1 neighbor lists, perpetual/occasional/extra = 1 0 0
  (1) pair eam/fs, perpetual
      attributes: half, newton on, omp
      pair build: half/bin/atomonly/newton/omp
      stencil: half/bin/3d
      bin: standard
Per MPI rank memory allocation (min/avg/max) = 17.2 | 17.2 | 17.2 Mbytes
   Step          Temp          PotEng         KinEng         Press          Volume           Lx             Ly             Lz             Xy             Xz             Yz      
         0   4000          -41591.09       5674.5204      354065.13      161522.46      54.46          54.46          54.46          0              0              0            
       100   2178.9609     -38965.667      3091.1394      450857.84      161522.46      54.46          54.46          54.46          0              0              0            
       200   2159.8008     -38881.071      3063.9584      455480.82      161522.46      54.46          54.46          54.46          0              0              0            
       300   2151.0554     -38803.149      3051.5519      459105.79      161522.46      54.46          54.46          54.46          0              0              0            
       400   2164.2725     -38752.924      3070.3021      461324.18      161522.46      54.46          54.46          54.46          0              0              0            
       500   2190.9683     -38720.267      3108.1735      462912.7       161522.46      54.46          54.46          54.46          0              0              0            
       600   2196.9007     -38657.024      3116.5894      465737.93      161522.46      54.46          54.46          54.46          0              0              0            
       700   2246.6884     -38655.498      3187.2198      466454.09      161522.46      54.46          54.46          54.46          0              0              0            
       800   2282.0418     -38633.158      3237.3731      467773.87      161522.46      54.46          54.46          54.46          0              0              0            
       900   2304.6636     -38592.541      3269.4652      469622.86      161522.46      54.46          54.46          54.46          0              0              0            
      1000   2335.7904     -38563.832      3313.6226      471297.91      161522.46      54.46          54.46          54.46          0              0              0            
      1100   2348.1721     -38508.288      3331.1876      473462.11      161522.46      54.46          54.46          54.46          0              0              0            
      1200   2374.5896     -38472.677      3368.6642      475456.53      161522.46      54.46          54.46          54.46          0              0              0            
      1300   2378.8447     -38405.606      3374.7007      478623.15      161522.46      54.46          54.46          54.46          0              0              0            
      1400   2416.1334     -38385.292      3427.5996      479630.63      161522.46      54.46          54.46          54.46          0              0              0            
      1500   2467.6742     -38385.165      3500.7169      480141.93      161522.46      54.46          54.46          54.46          0              0              0            
      1600   2506.7893     -38367.613      3556.2068      481674.55      161522.46      54.46          54.46          54.46          0              0              0            
      1700   2522.5638     -38316.755      3578.5848      483386.08      161522.46      54.46          54.46          54.46          0              0              0            
      1800   2531.9524     -38257.095      3591.9038      486248.25      161522.46      54.46          54.46          54.46          0              0              0            
      1900   2566.9402     -38233.756      3641.5386      487695.05      161522.46      54.46          54.46          54.46          0              0              0            
      2000   2616.2834     -38230.94       3711.5384      488113.37      161522.46      54.46          54.46          54.46          0              0              0            
      2100   2620.6273     -38164.392      3717.7007      490826.79      161522.46      54.46          54.46          54.46          0              0              0            
      2200   2646.9137     -38129.302      3754.9914      492807.59      161522.46      54.46          54.46          54.46          0              0              0            
      2300   2669.3596     -38088.775      3786.8339      495133.44      161522.46      54.46          54.46          54.46          0              0              0            
      2400   2682.7787     -38035.622      3805.8706      497082.45      161522.46      54.46          54.46          54.46          0              0              0            
      2500   2728.5624     -38028.762      3870.8208      497997.44      161522.46      54.46          54.46          54.46          0              0              0            
      2600   2727.6549     -37955.719      3869.5333      501100.7       161522.46      54.46          54.46          54.46          0              0              0            
      2700   2803.7235     -37992.452      3977.4466      500018.82      161522.46      54.46          54.46          54.46          0              0              0            
      2800   2803.7113     -37921.346      3977.4292      503351.4       161522.46      54.46          54.46          54.46          0              0              0            
      2900   2808.4452     -37857.29       3984.1448      505735.48      161522.46      54.46          54.46          54.46          0              0              0            
      3000   2843.3879     -37836.549      4033.7156      507355.32      161522.46      54.46          54.46          54.46          0              0              0            
      3100   2892.2508     -37836.075      4103.034       508096.69      161522.46      54.46          54.46          54.46          0              0              0            
      3200   2881.3118     -37750.889      4087.5157      511461.82      161522.46      54.46          54.46          54.46          0              0              0            
      3300   2956.7659     -37788.867      4194.5571      510709.35      161522.46      54.46          54.46          54.46          0              0              0            
      3400   2968.8985     -37737.345      4211.7687      512529.68      161522.46      54.46          54.46          54.46          0              0              0            
      3500   2976.9852     -37680.561      4223.2408      515327.47      161522.46      54.46          54.46          54.46          0              0              0            
      3600   2995.0034     -37638.404      4248.802       516997.25      161522.46      54.46          54.46          54.46          0              0              0            
      3700   3035.0282     -37628.107      4305.5824      518234.01      161522.46      54.46          54.46          54.46          0              0              0            
      3800   3051.3537     -37584.686      4328.7422      520241.35      161522.46      54.46          54.46          54.46          0              0              0            
      3900   3071.1294     -37546.494      4356.7965      521648.82      161522.46      54.46          54.46          54.46          0              0              0            
      4000   3093.9632     -37513.256      4389.1893      523130.14      161522.46      54.46          54.46          54.46          0              0              0            
      4100   3099.3516     -37455.985      4396.8335      525784.12      161522.46      54.46          54.46          54.46          0              0              0            
      4200   3112.0718     -37409.609      4414.8786      527623.58      161522.46      54.46          54.46          54.46          0              0              0            
      4300   3137.0879     -37381.569      4450.3673      529409.12      161522.46      54.46          54.46          54.46          0              0              0            
      4400   3178.2192     -37376.893      4508.7174      530250.13      161522.46      54.46          54.46          54.46          0              0              0            
      4500   3183.6959     -37322.28       4516.4868      532280.79      161522.46      54.46          54.46          54.46          0              0              0            
      4600   3208.2552     -37295.649      4551.3274      534238.01      161522.46      54.46          54.46          54.46          0              0              0            
      4700   3262.087      -37311.082      4627.6947      533873.23      161522.46      54.46          54.46          54.46          0              0              0            
      4800   3294.8589     -37297.338      4674.186       534242.34      161522.46      54.46          54.46          54.46          0              0              0            
      4900   3294.31       -37237.234      4673.4073      537016.03      161522.46      54.46          54.46          54.46          0              0              0            
      5000   3295.733      -37180.649      4675.4261      539851.6       161522.46      54.46          54.46          54.46          0              0              0            
      5100   3311.6176     -37145.171      4697.9604      541175.9       161522.46      54.46          54.46          54.46          0              0              0            
      5200   3355.4412     -37150.435      4760.1299      541274.61      161522.46      54.46          54.46          54.46          0              0              0            
      5300   3413.044      -37176.073      4841.8469      540311.17      161522.46      54.46          54.46          54.46          0              0              0            
      5400   3398.1462     -37099.582      4820.7124      543610.54      161522.46      54.46          54.46          54.46          0              0              0            
      5500   3422.7013     -37079.954      4855.5471      544682.9       161522.46      54.46          54.46          54.46          0              0              0            
      5600   3464.9328     -37086.018      4915.458       544451.62      161522.46      54.46          54.46          54.46          0              0              0            
      5700   3473.7542     -37045.819      4927.9723      546344.3       161522.46      54.46          54.46          54.46          0              0              0            
      5800   3484.4276     -37009.022      4943.1138      548511.81      161522.46      54.46          54.46          54.46          0              0              0            
      5900   3490.797      -36967.439      4952.1497      550310.49      161522.46      54.46          54.46          54.46          0              0              0            
      6000   3509.4845     -36943.752      4978.6603      551478.66      161522.46      54.46          54.46          54.46          0              0              0            
      6100   3565.2033     -36973.435      5057.7047      550455.11      161522.46      54.46          54.46          54.46          0              0              0            
      6200   3536.9894     -36885.127      5017.6795      553797.64      161522.46      54.46          54.46          54.46          0              0              0            
      6300   3557.1751     -36866.726      5046.3156      554592.85      161522.46      54.46          54.46          54.46          0              0              0            
      6400   3572.2614     -36841.752      5067.7175      556344.65      161522.46      54.46          54.46          54.46          0              0              0            
      6500   3587.3837     -36817.843      5089.1704      557344.24      161522.46      54.46          54.46          54.46          0              0              0            
      6600   3593.4664     -36781.918      5097.7996      559091.81      161522.46      54.46          54.46          54.46          0              0              0            
      6700   3601.6311     -36750.31       5109.3823      560050.59      161522.46      54.46          54.46          54.46          0              0              0            
      6800   3640.3317     -36762.64       5164.2841      560038.37      161522.46      54.46          54.46          54.46          0              0              0            
      6900   3651.2682     -36736.594      5179.799       561125.29      161522.46      54.46          54.46          54.46          0              0              0            
      7000   3680.3059     -36737.296      5220.9927      560982.17      161522.46      54.46          54.46          54.46          0              0              0            
      7100   3699.8721     -36725.627      5248.7499      562230.11      161522.46      54.46          54.46          54.46          0              0              0            
      7200   3673.2045     -36649.235      5210.9184      565113.74      161522.46      54.46          54.46          54.46          0              0              0            
      7300   3713.2768     -36668.499      5267.7663      564528.57      161522.46      54.46          54.46          54.46          0              0              0            
      7400   3740.621      -36670.234      5306.5575      564812.8       161522.46      54.46          54.46          54.46          0              0              0            
      7500   3771.8258     -36678.542      5350.8256      564429.1       161522.46      54.46          54.46          54.46          0              0              0            
      7600   3744.0413     -36604.547      5311.4097      567356.05      161522.46      54.46          54.46          54.46          0              0              0            
      7700   3760.9803     -36594.709      5335.4399      568622.2       161522.46      54.46          54.46          54.46          0              0              0            
      7800   3747.768      -36543.354      5316.6964      570388.69      161522.46      54.46          54.46          54.46          0              0              0            
      7900   3757.6196     -36525.178      5330.6723      571226.34      161522.46      54.46          54.46          54.46          0              0              0            
      8000   3792.9705     -36544.679      5380.8221      570917.19      161522.46      54.46          54.46          54.46          0              0              0            
      8100   3824.275      -36558.895      5425.2315      570643.79      161522.46      54.46          54.46          54.46          0              0              0            
      8200   3793.3331     -36485.721      5381.3364      573433.47      161522.46      54.46          54.46          54.46          0              0              0            
      8300   3796.1958     -36461.8        5385.3976      573801.83      161522.46      54.46          54.46          54.46          0              0              0            
      8400   3892.107      -36570.681      5521.4601      570756.7       161522.46      54.46          54.46          54.46          0              0              0            
      8500   3845.6835     -36478.522      5455.6024      574052.71      161522.46      54.46          54.46          54.46          0              0              0            
      8600   3863.0691     -36477.538      5480.2661      573938.31      161522.46      54.46          54.46          54.46          0              0              0            
      8700   3865.6684     -36456.612      5483.9535      575377.92      161522.46      54.46          54.46          54.46          0              0              0            
      8800   3881.5402     -36455.294      5506.4698      574712.58      161522.46      54.46          54.46          54.46          0              0              0            
      8900   3848.903      -36385.762      5460.1696      577400.48      161522.46      54.46          54.46          54.46          0              0              0            
      9000   3873.9009     -36399.341      5495.6323      577532.57      161522.46      54.46          54.46          54.46          0              0              0            
      9100   3884.2835     -36392.921      5510.3615      577570.52      161522.46      54.46          54.46          54.46          0              0              0            
      9200   3924.1472     -36428.874      5566.9134      576134.41      161522.46      54.46          54.46          54.46          0              0              0            
      9300   3910.728      -36390.513      5547.8764      578107.93      161522.46      54.46          54.46          54.46          0              0              0            
      9400   3915.5589     -36378.619      5554.7296      578371.03      161522.46      54.46          54.46          54.46          0              0              0            
      9500   3898.2121     -36335.822      5530.121       580270.87      161522.46      54.46          54.46          54.46          0              0              0            
      9600   3937.6024     -36374.409      5586.0012      578544.66      161522.46      54.46          54.46          54.46          0              0              0            
      9700   3921.3836     -36335.607      5562.9928      580192.02      161522.46      54.46          54.46          54.46          0              0              0            
      9800   3927.373      -36328.521      5571.4896      580761.88      161522.46      54.46          54.46          54.46          0              0              0            
      9900   3954.159      -36352.397      5609.489       580605.19      161522.46      54.46          54.46          54.46          0              0              0            
     10000   3980.6119     -36376.57       5647.0158      579192.82      161522.46      54.46          54.46          54.46          0              0              0            
     10100   3908.3639     -36261.524      5544.5226      584064.97      161522.46      54.46          54.46          54.46          0              0              0            
     10200   3968.1838     -36334.011      5629.3849      580942.64      161522.46      54.46          54.46          54.46          0              0              0            
     10300   3951.2549     -36298.282      5605.3691      582005.62      161522.46      54.46          54.46          54.46          0              0              0            
     10400   3963.116      -36303.626      5622.1956      581734.33      161522.46      54.46          54.46          54.46          0              0              0            
     10500   3929.6366     -36245.775      5574.7008      584453.19      161522.46      54.46          54.46          54.46          0              0              0            
     10600   3963.0661     -36283.164      5622.1248      582745.38      161522.46      54.46          54.46          54.46          0              0              0            
     10700   3992.4589     -36315.384      5663.8223      581464.77      161522.46      54.46          54.46          54.46          0              0              0            
     10800   3971.2539     -36277.084      5633.7403      583275.36      161522.46      54.46          54.46          54.46          0              0              0            
     10900   3987.3867     -36292.202      5656.6267      582877.94      161522.46      54.46          54.46          54.46          0              0              0            
     11000   3982.8048     -36278.545      5650.1267      583562.86      161522.46      54.46          54.46          54.46          0              0              0            
     11100   3974.4406     -36259.822      5638.2611      583803.65      161522.46      54.46          54.46          54.46          0              0              0            
     11200   3996.6573     -36285.924      5669.7783      583226.62      161522.46      54.46          54.46          54.46          0              0              0            
     11300   4001.2473     -36286.955      5676.2899      583642.43      161522.46      54.46          54.46          54.46          0              0              0            
     11400   4021.1416     -36309.946      5704.5125      582619.43      161522.46      54.46          54.46          54.46          0              0              0            
     11500   4009.8586     -36289.942      5688.5061      583859.87      161522.46      54.46          54.46          54.46          0              0              0            
     11600   3997.8944     -36269.628      5671.5333      583764.46      161522.46      54.46          54.46          54.46          0              0              0            
     11700   4029.8769     -36311.671      5716.9047      582713.66      161522.46      54.46          54.46          54.46          0              0              0            
     11800   3999.9616     -36266.76       5674.4659      584265.08      161522.46      54.46          54.46          54.46          0              0              0            
     11900   4025.9752     -36301.556      5711.3696      582490.74      161522.46      54.46          54.46          54.46          0              0              0            
     12000   4000.931      -36264.306      5675.8411      583781.12      161522.46      54.46          54.46          54.46          0              0              0            
     12100   4021.9123     -36292.585      5705.6058      583740.72      161522.46      54.46          54.46          54.46          0              0              0            
     12200   4021.0264     -36290.056      5704.349       583674.47      161522.46      54.46          54.46          54.46          0              0              0            
     12300   4042.2991     -36318.696      5734.5272      582220.26      161522.46      54.46          54.46          54.46          0              0              0            
     12400   4024.7868     -36292.955      5709.6837      582837.25      161522.46      54.46          54.46          54.46          0              0              0            
     12500   3960.0407     -36200.953      5617.8328      585933.03      161522.46      54.46          54.46          54.46          0              0              0            
     12600   4007.1825     -36267.48       5684.7097      583678.52      161522.46      54.46          54.46          54.46          0              0              0            
     12700   3999.6459     -36255.745      5674.018       584058.79      161522.46      54.46          54.46          54.46          0              0              0            
     12800   3987.7078     -36238.201      5657.0822      584605.79      161522.46      54.46          54.46          54.46          0              0              0            
     12900   4017.1991     -36279.202      5698.9196      583684.22      161522.46      54.46          54.46          54.46          0              0              0            
     13000   3956.3063     -36192.146      5612.5351      586652.67      161522.46      54.46          54.46          54.46          0              0              0            
     13100   4013.6768     -36272.919      5693.9226      583722.98      161522.46      54.46          54.46          54.46          0              0              0            
     13200   4004.2747     -36259.425      5680.5847      584101.98      161522.46      54.46          54.46          54.46          0              0              0            
     13300   3982.5626     -36229.11       5649.7831      585506.06      161522.46      54.46          54.46          54.46          0              0              0            
     13400   3979.36       -36224.837      5645.2398      585654.89      161522.46      54.46          54.46          54.46          0              0              0            
     13500   3981.4511     -36228.199      5648.2063      585261.25      161522.46      54.46          54.46          54.46          0              0              0            
     13600   3967.2069     -36207.585      5627.999       586112.32      161522.46      54.46          54.46          54.46          0              0              0            
     13700   4001.5986     -36255.53       5676.7881      584920.71      161522.46      54.46          54.46          54.46          0              0              0            
     13800   3969.5612     -36209.704      5631.3389      585834.9       161522.46      54.46          54.46          54.46          0              0              0            
     13900   4067.0983     -36347.834      5769.708       581628.71      161522.46      54.46          54.46          54.46          0              0              0            
     14000   3992.5045     -36242.493      5663.887       585192.51      161522.46      54.46          54.46          54.46          0              0              0            
     14100   3974.0952     -36216.552      5637.771       585755.4       161522.46      54.46          54.46          54.46          0              0              0            
     14200   4012.1314     -36271.609      5691.7303      583433.09      161522.46      54.46          54.46          54.46          0              0              0            
     14300   3997.7925     -36252.208      5671.3887      584883.76      161522.46      54.46          54.46          54.46          0              0              0            
     14400   4011.3276     -36272.65       5690.5901      583998.28      161522.46      54.46          54.46          54.46          0              0              0            
     14500   4008.7332     -36269.922      5686.9096      584284.62      161522.46      54.46          54.46          54.46          0              0              0            
     14600   3963.0252     -36205.742      5622.0667      586328.93      161522.46      54.46          54.46          54.46          0              0              0            
     14700   3999.6955     -36258.263      5674.0884      584459.58      161522.46      54.46          54.46          54.46          0              0              0            
     14800   3996.0521     -36253.846      5668.9198      584828.43      161522.46      54.46          54.46          54.46          0              0              0            
     14900   3982.8798     -36235.17       5650.2331      585369.81      161522.46      54.46          54.46          54.46          0              0              0            
     15000   3981.5391     -36233.949      5648.3312      585225.81      161522.46      54.46          54.46          54.46          0              0              0            
     15100   4005.1143     -36267.055      5681.7757      584187.96      161522.46      54.46          54.46          54.46          0              0              0            
     15200   3999.1619     -36258.526      5673.3315      584440.82      161522.46      54.46          54.46          54.46          0              0              0            
     15300   4003.1827     -36263.88       5679.0354      584527.55      161522.46      54.46          54.46          54.46          0              0              0            
     15400   3974.8683     -36223.023      5638.8677      585590.95      161522.46      54.46          54.46          54.46          0              0              0            
     15500   3995.3607     -36250.703      5667.9389      584189.01      161522.46      54.46          54.46          54.46          0              0              0            
     15600   3975.2456     -36221.601      5639.403       586239.12      161522.46      54.46          54.46          54.46          0              0              0            
     15700   3998.4575     -36254.313      5672.3322      584982.23      161522.46      54.46          54.46          54.46          0              0              0            
     15800   3998.7185     -36254.353      5672.7023      584623.41      161522.46      54.46          54.46          54.46          0              0              0            
     15900   3999.472      -36255.776      5673.7713      584408.31      161522.46      54.46          54.46          54.46          0              0              0            
     16000   4020.2162     -36285.963      5703.1997      583598.92      161522.46      54.46          54.46          54.46          0              0              0            
     16100   4004.3799     -36264.528      5680.7338      584850.95      161522.46      54.46          54.46          54.46          0              0              0            
     16200   3996.5363     -36254.374      5669.6066      584774.46      161522.46      54.46          54.46          54.46          0              0              0            
     16300   3986.3773     -36241.237      5655.1948      584846.28      161522.46      54.46          54.46          54.46          0              0              0            
     16400   4017.4195     -36286.316      5699.2321      583630.93      161522.46      54.46          54.46          54.46          0              0              0            
     16500   4032.8073     -36309.137      5721.0618      582367.35      161522.46      54.46          54.46          54.46          0              0              0            
     16600   4019.8906     -36291.495      5702.7378      583297.33      161522.46      54.46          54.46          54.46          0              0              0            
     16700   4008.7065     -36275.461      5686.8717      584012.64      161522.46      54.46          54.46          54.46          0              0              0            
     16800   4003.8075     -36267.929      5679.9218      584159.44      161522.46      54.46          54.46          54.46          0              0              0            
     16900   4013.3706     -36281.517      5693.4883      583641.05      161522.46      54.46          54.46          54.46          0              0              0            
     17000   3962.4964     -36210.027      5621.3166      585899.99      161522.46      54.46          54.46          54.46          0              0              0            
     17100   4059.1964     -36347.557      5758.4981      580975.31      161522.46      54.46          54.46          54.46          0              0              0            
     17200   3997.2508     -36259.793      5670.6203      584278.32      161522.46      54.46          54.46          54.46          0              0              0            
     17300   4018.1354     -36289.648      5700.2477      583029.19      161522.46      54.46          54.46          54.46          0              0              0            
     17400   4014.2583     -36283.724      5694.7476      583510.94      161522.46      54.46          54.46          54.46          0              0              0            
     17500   4010.9689     -36277.798      5690.0811      583357.73      161522.46      54.46          54.46          54.46          0              0              0            
     17600   3948.7655     -36189.212      5601.8375      586696.42      161522.46      54.46          54.46          54.46          0              0              0            
     17700   4008.1824     -36272.493      5686.1281      583001.18      161522.46      54.46          54.46          54.46          0              0              0            
     17800   3977.831      -36229.545      5643.0707      585498.63      161522.46      54.46          54.46          54.46          0              0              0            
     17900   4003.3531     -36265.31       5679.2772      583891.57      161522.46      54.46          54.46          54.46          0              0              0            
     18000   4014.9426     -36281.431      5695.7184      583691.22      161522.46      54.46          54.46          54.46          0              0              0            
     18100   3976.4555     -36226.329      5641.1194      585344.07      161522.46      54.46          54.46          54.46          0              0              0            
     18200   4010.1495     -36273.056      5688.9188      583525.3       161522.46      54.46          54.46          54.46          0              0              0            
     18300   4020.4842     -36286.802      5703.5798      582990.32      161522.46      54.46          54.46          54.46          0              0              0            
     18400   3996.3944     -36252.531      5669.4054      584542.61      161522.46      54.46          54.46          54.46          0              0              0            
     18500   4008.4812     -36269.115      5686.552       584005.28      161522.46      54.46          54.46          54.46          0              0              0            
     18600   3992.5311     -36245.891      5663.9247      585199.74      161522.46      54.46          54.46          54.46          0              0              0            
     18700   3998.6969     -36255.102      5672.6717      584495.68      161522.46      54.46          54.46          54.46          0              0              0            
     18800   3996.7919     -36252.893      5669.9693      584931.11      161522.46      54.46          54.46          54.46          0              0              0            
     18900   3950.1706     -36187.354      5603.8309      586691.94      161522.46      54.46          54.46          54.46          0              0              0            
     19000   3973.5908     -36221.264      5637.0554      585686.58      161522.46      54.46          54.46          54.46          0              0              0            
     19100   3989.3251     -36243.55       5659.3766      584499.69      161522.46      54.46          54.46          54.46          0              0              0            
     19200   4015.6584     -36280.388      5696.7339      583663.29      161522.46      54.46          54.46          54.46          0              0              0            
     19300   4019.6681     -36285.601      5702.4221      583148.59      161522.46      54.46          54.46          54.46          0              0              0            
     19400   3990.0293     -36243.922      5660.3756      584789.59      161522.46      54.46          54.46          54.46          0              0              0            
     19500   3982.1261     -36233.63       5649.1639      584658.13      161522.46      54.46          54.46          54.46          0              0              0            
     19600   4016.1492     -36282.146      5697.4301      583329.94      161522.46      54.46          54.46          54.46          0              0              0            
     19700   4008.8608     -36272.601      5687.0906      583571.63      161522.46      54.46          54.46          54.46          0              0              0            
     19800   4009.2743     -36273.613      5687.6772      583269.13      161522.46      54.46          54.46          54.46          0              0              0            
     19900   3994.9921     -36253.595      5667.416       584388.36      161522.46      54.46          54.46          54.46          0              0              0            
     20000   3998.335      -36258.067      5672.1584      584561.35      161522.46      54.46          54.46          54.46          0              0              0            
     20100   3980.05       -36231.539      5646.2188      585472.02      161522.46      54.46          54.46          54.46          0              0              0            
     20200   4008.9834     -36271.883      5687.2645      583848.86      161522.46      54.46          54.46          54.46          0              0              0            
     20300   4031.3514     -36303.74       5718.9964      582932.97      161522.46      54.46          54.46          54.46          0              0              0            
     20400   4042.3272     -36319.974      5734.5671      582575.74      161522.46      54.46          54.46          54.46          0              0              0            
     20500   3983.7895     -36237.55       5651.5237      584860.12      161522.46      54.46          54.46          54.46          0              0              0            
     20600   4006.5679     -36270.617      5683.8378      583705.17      161522.46      54.46          54.46          54.46          0              0              0            
     20700   3994.7165     -36254.513      5667.025       584223.75      161522.46      54.46          54.46          54.46          0              0              0            
     20800   4035.7551     -36313.147      5725.2436      582496.29      161522.46      54.46          54.46          54.46          0              0              0            
     20900   3982.6189     -36238.103      5649.8631      584883.94      161522.46      54.46          54.46          54.46          0              0              0            
     21000   3981.3079     -36235.934      5648.0031      585069.45      161522.46      54.46          54.46          54.46          0              0              0            
     21100   4004.3252     -36268.384      5680.6562      583876.13      161522.46      54.46          54.46          54.46          0              0              0            
     21200   4006.0756     -36269.849      5683.1393      583892.21      161522.46      54.46          54.46          54.46          0              0              0            
     21300   3997.4935     -36257.012      5670.9645      584180.33      161522.46      54.46          54.46          54.46          0              0              0            
     21400   3993.1359     -36251.471      5664.7828      584772.2       161522.46      54.46          54.46          54.46          0              0              0            
     21500   4026.1405     -36298.375      5711.6041      582887.8       161522.46      54.46          54.46          54.46          0              0              0            
     21600   3985.361      -36240.208      5653.753       584822.66      161522.46      54.46          54.46          54.46          0              0              0            
     21700   3937.5321     -36171.83       5585.9015      586688.51      161522.46      54.46          54.46          54.46          0              0              0            
     21800   3997.8873     -36256.485      5671.5232      584456.59      161522.46      54.46          54.46          54.46          0              0              0            
     21900   4016.7465     -36283.033      5698.2775      583547.1       161522.46      54.46          54.46          54.46          0              0              0            
     22000   4009.4612     -36273.254      5687.9423      583728.82      161522.46      54.46          54.46          54.46          0              0              0            
     22100   4008.5597     -36272.05       5686.6634      583493.92      161522.46      54.46          54.46          54.46          0              0              0            
     22200   3987.9562     -36242.418      5657.4346      584498.32      161522.46      54.46          54.46          54.46          0              0              0            
     22300   3992.3057     -36248.286      5663.605       585005.81      161522.46      54.46          54.46          54.46          0              0              0            
     22400   4023.7012     -36292.924      5708.1436      583004.57      161522.46      54.46          54.46          54.46          0              0              0            
     22500   3984.4621     -36237.488      5652.4778      585085.97      161522.46      54.46          54.46          54.46          0              0              0            
     22600   4077.7829     -36370.006      5784.8656      580680.79      161522.46      54.46          54.46          54.46          0              0              0            
     22700   4018.855      -36286.982      5701.2687      582833.93      161522.46      54.46          54.46          54.46          0              0              0            
     22800   4037.3608     -36314.065      5727.5215      582455.15      161522.46      54.46          54.46          54.46          0              0              0            
     22900   3980.8341     -36234.972      5647.3311      584975.35      161522.46      54.46          54.46          54.46          0              0              0            
     23000   4005.1198     -36269.742      5681.7835      583948.46      161522.46      54.46          54.46          54.46          0              0              0            
     23100   4014.6279     -36283.16       5695.272       583149.03      161522.46      54.46          54.46          54.46          0              0              0            
     23200   4017.703      -36287.196      5699.6344      583421.7       161522.46      54.46          54.46          54.46          0              0              0            
     23300   4009.3418     -36275.22       5687.7729      583574.07      161522.46      54.46          54.46          54.46          0              0              0            
     23400   3957.5944     -36201.699      5614.3625      586721.07      161522.46      54.46          54.46          54.46          0              0              0            
     23500   4023.5444     -36295.338      5707.9212      583298.66      161522.46      54.46          54.46          54.46          0              0              0            
     23600   4023.3144     -36294.464      5707.5949      583364.44      161522.46      54.46          54.46          54.46          0              0              0            
     23700   3985.3102     -36240.284      5653.6809      584535.79      161522.46      54.46          54.46          54.46          0              0              0            
     23800   3988.5139     -36244.419      5658.2258      584544.79      161522.46      54.46          54.46          54.46          0              0              0            
     23900   3996.4745     -36256.244      5669.5189      584983.28      161522.46      54.46          54.46          54.46          0              0              0            
     24000   3975.5996     -36227.124      5639.9052      584893.04      161522.46      54.46          54.46          54.46          0              0              0            
     24100   4011.948      -36278.551      5691.4702      583246.97      161522.46      54.46          54.46          54.46          0              0              0            
     24200   4002.2523     -36264.974      5677.7156      583937.8       161522.46      54.46          54.46          54.46          0              0              0            
     24300   4000.3722     -36263.041      5675.0485      584305.56      161522.46      54.46          54.46          54.46          0              0              0            
     24400   3997.5235     -36259.029      5671.0071      584813.16      161522.46      54.46          54.46          54.46          0              0              0            
     24500   3989.5164     -36247.468      5659.648       584593.24      161522.46      54.46          54.46          54.46          0              0              0            
     24600   4016.2864     -36285.098      5697.6247      583259.79      161522.46      54.46          54.46          54.46          0              0              0            
     24700   3992.6352     -36251.96       5664.0724      584577.59      161522.46      54.46          54.46          54.46          0              0              0            
     24800   3942.9719     -36180.849      5593.6185      586644.2       161522.46      54.46          54.46          54.46          0              0              0            
     24900   4032.0968     -36306.412      5720.0538      582397.29      161522.46      54.46          54.46          54.46          0              0              0            
     25000   3973.3209     -36222.878      5636.6726      585540.43      161522.46      54.46          54.46          54.46          0              0              0            
     25100   4014.9101     -36281.449      5695.6723      583470.17      161522.46      54.46          54.46          54.46          0              0              0            
     25200   3991.8846     -36248.017      5663.0076      584892.11      161522.46      54.46          54.46          54.46          0              0              0            
     25300   3975.3265     -36223.822      5639.5178      585672.76      161522.46      54.46          54.46          54.46          0              0              0            
     25400   3998.7803     -36256.839      5672.7901      584310.09      161522.46      54.46          54.46          54.46          0              0              0            
     25500   3975.8701     -36224.128      5640.289       585609.88      161522.46      54.46          54.46          54.46          0              0              0            
     25600   3979.7279     -36229.486      5645.7617      585255.81      161522.46      54.46          54.46          54.46          0              0              0            
     25700   4007.6003     -36268.616      5685.3024      583970.06      161522.46      54.46          54.46          54.46          0              0              0            
     25800   4010.0777     -36271.862      5688.8169      584374.38      161522.46      54.46          54.46          54.46          0              0              0            
     25900   4000.9204     -36258.794      5675.8261      583865.59      161522.46      54.46          54.46          54.46          0              0              0            
     26000   4008.533      -36268.867      5686.6256      583817.84      161522.46      54.46          54.46          54.46          0              0              0            
     26100   4002.2276     -36259.441      5677.6804      583669.14      161522.46      54.46          54.46          54.46          0              0              0            
     26200   3958.9827     -36197.243      5616.332       585687.33      161522.46      54.46          54.46          54.46          0              0              0            
     26300   3982.3722     -36229.856      5649.5131      585723.96      161522.46      54.46          54.46          54.46          0              0              0            
     26400   3973.1446     -36216.349      5636.4225      585863.7       161522.46      54.46          54.46          54.46          0              0              0            
     26500   4034.9199     -36303.483      5724.0588      583248.89      161522.46      54.46          54.46          54.46          0              0              0            
     26600   3961.2034     -36198.057      5619.4824      586334.82      161522.46      54.46          54.46          54.46          0              0              0            
     26700   3973.6423     -36214.526      5637.1285      586401.83      161522.46      54.46          54.46          54.46          0              0              0            
     26800   4026.5147     -36288.773      5712.1349      583089.44      161522.46      54.46          54.46          54.46          0              0              0            
     26900   3991.2214     -36238.083      5662.0667      584658.25      161522.46      54.46          54.46          54.46          0              0              0            
     27000   4011.2692     -36266.069      5690.5072      583656.29      161522.46      54.46          54.46          54.46          0              0              0            
     27100   4026.2749     -36286.479      5711.7947      583013.52      161522.46      54.46          54.46          54.46          0              0              0            
     27200   3993.1762     -36239.173      5664.8399      585109.13      161522.46      54.46          54.46          54.46          0              0              0            
     27300   4008.6121     -36261.015      5686.7377      584271.96      161522.46      54.46          54.46          54.46          0              0              0            
     27400   4014.1475     -36268.847      5694.5904      583779.38      161522.46      54.46          54.46          54.46          0              0              0            
     27500   4015.0495     -36270.959      5695.8701      583600.35      161522.46      54.46          54.46          54.46          0              0              0            
     27600   3985.2379     -36229.75       5653.5784      585343.34      161522.46      54.46          54.46          54.46          0              0              0            
     27700   4003.125      -36255.234      5678.9536      584457.2       161522.46      54.46          54.46          54.46          0              0              0            
     27800   4016.2511     -36274.888      5697.5747      583643.11      161522.46      54.46          54.46          54.46          0              0              0            
     27900   3979.6176     -36223.394      5645.6053      585625.16      161522.46      54.46          54.46          54.46          0              0              0            
     28000   4004.3004     -36259.041      5680.621       584426.87      161522.46      54.46          54.46          54.46          0              0              0            
     28100   4021.2922     -36283.55       5704.7261      583127.61      161522.46      54.46          54.46          54.46          0              0              0            
     28200   3985.2028     -36232.516      5653.5286      585877         161522.46      54.46          54.46          54.46          0              0              0            
     28300   4010.1696     -36267.417      5688.9472      583963.36      161522.46      54.46          54.46          54.46          0              0              0            
     28400   4025.5298     -36288.872      5710.7377      583666.81      161522.46      54.46          54.46          54.46          0              0              0            
     28500   4010.7286     -36267.779      5689.7403      584350.73      161522.46      54.46          54.46          54.46          0              0              0            
     28600   4030.0364     -36295.372      5717.1309      582819.96      161522.46      54.46          54.46          54.46          0              0              0            
     28700   3979.5667     -36224.954      5645.5331      585740.67      161522.46      54.46          54.46          54.46          0              0              0            
     28800   4025.0346     -36290.596      5710.0352      583201.9       161522.46      54.46          54.46          54.46          0              0              0            
     28900   4005.2386     -36263.48       5681.9519      584052.84      161522.46      54.46          54.46          54.46          0              0              0            
     29000   3970.7103     -36215.182      5632.9691      585474.43      161522.46      54.46          54.46          54.46          0              0              0            
     29100   3990.2781     -36242.84       5660.7287      584915.43      161522.46      54.46          54.46          54.46          0              0              0            
     29200   3977.8186     -36224.643      5643.0532      585369.3       161522.46      54.46          54.46          54.46          0              0              0            
     29300   3974.7871     -36219.365      5638.7526      585800.16      161522.46      54.46          54.46          54.46          0              0              0            
     29400   4009.1261     -36267.16       5687.4669      583389.77      161522.46      54.46          54.46          54.46          0              0              0            
     29500   3978.3268     -36223.098      5643.7742      585173.58      161522.46      54.46          54.46          54.46          0              0              0            
     29600   4016.0969     -36276.784      5697.3559      584022.78      161522.46      54.46          54.46          54.46          0              0              0            
     29700   3992.1216     -36242.792      5663.3438      584791.47      161522.46      54.46          54.46          54.46          0              0              0            
     29800   4001.946      -36257.196      5677.281       584242.66      161522.46      54.46          54.46          54.46          0              0              0            
     29900   3972.112      -36216.484      5634.9576      585777.74      161522.46      54.46          54.46          54.46          0              0              0            
     30000   4007.8447     -36268.291      5685.6491      584589.38      161522.46      54.46          54.46          54.46          0              0              0            
     30100   3965.9659     -36210.193      5626.2386      586093.03      161522.46      54.46          54.46          54.46          0              0              0            
     30200   4035.042      -36307.815      5724.232       582957.59      161522.46      54.46          54.46          54.46          0              0              0            
     30300   3997.9711     -36254.925      5671.6421      584676.89      161522.46      54.46          54.46          54.46          0              0              0            
     30400   4002.9959     -36262.544      5678.7704      584032.58      161522.46      54.46          54.46          54.46          0              0              0            
     30500   4029.2493     -36300.821      5716.0143      583332.9       161522.46      54.46          54.46          54.46          0              0              0            
     30600   4063.4875     -36350.225      5764.5856      581499.66      161522.46      54.46          54.46          54.46          0              0              0            
     30700   3988.771      -36244.059      5658.5906      584992.34      161522.46      54.46          54.46          54.46          0              0              0            
     30800   3975.2336     -36224.765      5639.3861      585281.76      161522.46      54.46          54.46          54.46          0              0              0            
     30900   3960.9702     -36204.576      5619.1515      586527.71      161522.46      54.46          54.46          54.46          0              0              0            
     31000   4018.7536     -36286.3        5701.1247      583379.98      161522.46      54.46          54.46          54.46          0              0              0            
     31100   3990.2281     -36245.596      5660.6577      584966.56      161522.46      54.46          54.46          54.46          0              0              0            
     31200   3994.3195     -36251.675      5666.4618      584727.34      161522.46      54.46          54.46          54.46          0              0              0            
     31300   4048.6993     -36329.955      5743.6066      582348.54      161522.46      54.46          54.46          54.46          0              0              0            
     31400   3958.0053     -36202.641      5614.9454      586379.96      161522.46      54.46          54.46          54.46          0              0              0            
     31500   4031.0737     -36306.551      5718.6025      582639.46      161522.46      54.46          54.46          54.46          0              0              0            
     31600   4017.0323     -36287.077      5698.683       583712.4       161522.46      54.46          54.46          54.46          0              0              0            
     31700   4007.424      -36273.226      5685.0523      583939.7       161522.46      54.46          54.46          54.46          0              0              0            
     31800   4010.7288     -36277.712      5689.7406      583831.8       161522.46      54.46          54.46          54.46          0              0              0            
     31900   4026.0074     -36298.515      5711.4153      582798.16      161522.46      54.46          54.46          54.46          0              0              0            
     32000   3980.9326     -36234.227      5647.4707      585235.35      161522.46      54.46          54.46          54.46          0              0              0            
     32100   3985.7143     -36239.722      5654.2542      585226.69      161522.46      54.46          54.46          54.46          0              0              0            
     32200   3984.4217     -36237.226      5652.4206      584875.66      161522.46      54.46          54.46          54.46          0              0              0            
     32300   4022.1889     -36290.701      5705.9982      583000.21      161522.46      54.46          54.46          54.46          0              0              0            
     32400   3975.4033     -36224.994      5639.6268      585704.3       161522.46      54.46          54.46          54.46          0              0              0            
     32500   4003.5266     -36264.197      5679.5233      584273.02      161522.46      54.46          54.46          54.46          0              0              0            
     32600   3975.1521     -36223.078      5639.2704      585435.4       161522.46      54.46          54.46          54.46          0              0              0            
     32700   4047.998      -36325.266      5742.6118      581814.07      161522.46      54.46          54.46          54.46          0              0              0            
     32800   3980.5446     -36228.662      5646.9203      585736.45      161522.46      54.46          54.46          54.46          0              0              0            
     32900   4052.4826     -36329.12       5748.9738      581897.16      161522.46      54.46          54.46          54.46          0              0              0            
     33000   3982.5855     -36229.138      5649.8156      585235.49      161522.46      54.46          54.46          54.46          0              0              0            
     33100   3993.1268     -36243.627      5664.7698      584638.79      161522.46      54.46          54.46          54.46          0              0              0            
     33200   4036.9552     -36305.396      5726.9462      582990.1       161522.46      54.46          54.46          54.46          0              0              0            
     33300   4013.7149     -36272.492      5693.9767      584412.4       161522.46      54.46          54.46          54.46          0              0              0            
     33400   3997.1914     -36249.475      5670.5359      585042.84      161522.46      54.46          54.46          54.46          0              0              0            
     33500   3983.3275     -36230.245      5650.8682      585211.35      161522.46      54.46          54.46          54.46          0              0              0            
     33600   4001.6648     -36257.472      5676.8821      584355.75      161522.46      54.46          54.46          54.46          0              0              0            
     33700   4004.8509     -36263.058      5681.402       584272.01      161522.46      54.46          54.46          54.46          0              0              0            
     33800   3977.7312     -36226.216      5642.9292      585154.5       161522.46      54.46          54.46          54.46          0              0              0            
     33900   4032.6601     -36305.891      5720.8529      582373.3       161522.46      54.46          54.46          54.46          0              0              0            
     34000   4001.7879     -36263.854      5677.0568      584271.43      161522.46      54.46          54.46          54.46          0              0              0            
     34100   4016.4445     -36285.154      5697.849       583159.49      161522.46      54.46          54.46          54.46          0              0              0            
     34200   4040.0722     -36319.271      5731.368       582169.06      161522.46      54.46          54.46          54.46          0              0              0            
     34300   3963.2584     -36210.388      5622.3977      585873.87      161522.46      54.46          54.46          54.46          0              0              0            
     34400   4000.4372     -36262.721      5675.1406      584654.07      161522.46      54.46          54.46          54.46          0              0              0            
     34500   3964.0511     -36210.324      5623.5222      586160.83      161522.46      54.46          54.46          54.46          0              0              0            
     34600   4029.2757     -36301.928      5716.0517      582690.5       161522.46      54.46          54.46          54.46          0              0              0            
     34700   4009.8208     -36274.439      5688.4524      583904.48      161522.46      54.46          54.46          54.46          0              0              0            
     34800   3997.6571     -36256.855      5671.1967      584305.05      161522.46      54.46          54.46          54.46          0              0              0            
     34900   3976.2652     -36226.407      5640.8495      585171.53      161522.46      54.46          54.46          54.46          0              0              0            
     35000   4007.1909     -36269.79       5684.7216      583931.9       161522.46      54.46          54.46          54.46          0              0              0            
     35100   4008.1189     -36271.442      5686.0381      583749.97      161522.46      54.46          54.46          54.46          0              0              0            
     35200   4012.2432     -36278.021      5691.8889      583570.5       161522.46      54.46          54.46          54.46          0              0              0            
     35300   4008.4878     -36273.06       5686.5613      584119.27      161522.46      54.46          54.46          54.46          0              0              0            
     35400   4000.8215     -36261.986      5675.6857      584478.5       161522.46      54.46          54.46          54.46          0              0              0            
     35500   4019.5402     -36288.476      5702.2406      583346.07      161522.46      54.46          54.46          54.46          0              0              0            
     35600   4008.6312     -36273.602      5686.7648      583895.37      161522.46      54.46          54.46          54.46          0              0              0            
     35700   4014.6295     -36281.912      5695.2742      583803.28      161522.46      54.46          54.46          54.46          0              0              0            
     35800   3996.1695     -36256.228      5669.0862      584477.74      161522.46      54.46          54.46          54.46          0              0              0            
     35900   3974.8924     -36226.459      5638.9019      585511.34      161522.46      54.46          54.46          54.46          0              0              0            
     36000   3973.4058     -36224.287      5636.793       585538.4       161522.46      54.46          54.46          54.46          0              0              0            
     36100   4000.0776     -36261.313      5674.6305      584594.39      161522.46      54.46          54.46          54.46          0              0              0            
     36200   4053.2793     -36336.63       5750.104       581447.91      161522.46      54.46          54.46          54.46          0              0              0            
     36300   3984.9241     -36239.586      5653.1332      585558.75      161522.46      54.46          54.46          54.46          0              0              0            
     36400   4014.6896     -36282.09       5695.3594      583768.31      161522.46      54.46          54.46          54.46          0              0              0            
     36500   3974.1407     -36224.451      5637.8356      585493.43      161522.46      54.46          54.46          54.46          0              0              0            
     36600   3977.6389     -36229.793      5642.7982      584920.26      161522.46      54.46          54.46          54.46          0              0              0            
     36700   3988.6357     -36245.735      5658.3987      585196.96      161522.46      54.46          54.46          54.46          0              0              0            
     36800   3993.1551     -36252.854      5664.81        584231.94      161522.46      54.46          54.46          54.46          0              0              0            
     36900   4057.312      -36343.947      5755.8248      581457.93      161522.46      54.46          54.46          54.46          0              0              0            
     37000   3992.1438     -36251.878      5663.3753      584215.39      161522.46      54.46          54.46          54.46          0              0              0            
     37100   4013.2182     -36281.441      5693.272       583761.88      161522.46      54.46          54.46          54.46          0              0              0            
     37200   4009.83       -36276.95       5688.4655      583334.6       161522.46      54.46          54.46          54.46          0              0              0            
     37300   4030.3128     -36306.145      5717.5231      582442.59      161522.46      54.46          54.46          54.46          0              0              0            
     37400   4010.8219     -36278.525      5689.8727      583707.31      161522.46      54.46          54.46          54.46          0              0              0            
     37500   4027.9304     -36302.58       5714.1433      582900.25      161522.46      54.46          54.46          54.46          0              0              0            
     37600   4001.4748     -36264.642      5676.6125      584240.22      161522.46      54.46          54.46          54.46          0              0              0            
     37700   4017.9409     -36287.536      5699.9719      583355.33      161522.46      54.46          54.46          54.46          0              0              0            
     37800   3994.2813     -36253.412      5666.4076      584307.53      161522.46      54.46          54.46          54.46          0              0              0            
     37900   3994.4813     -36252.284      5666.6913      584483.93      161522.46      54.46          54.46          54.46          0              0              0            
     38000   4024.4991     -36294.657      5709.2755      583585.97      161522.46      54.46          54.46          54.46          0              0              0            
     38100   4022.6055     -36291.194      5706.5891      582989.28      161522.46      54.46          54.46          54.46          0              0              0            
     38200   3984.8287     -36237.131      5652.9979      584887.91      161522.46      54.46          54.46          54.46          0              0              0            
     38300   4002.3552     -36261.86       5677.8615      584406.05      161522.46      54.46          54.46          54.46          0              0              0            
     38400   3995.5393     -36252.003      5668.1923      584482.02      161522.46      54.46          54.46          54.46          0              0              0            
     38500   3998.0284     -36255.339      5671.7234      584357.63      161522.46      54.46          54.46          54.46          0              0              0            
     38600   4025.1417     -36293.397      5710.1871      582966.78      161522.46      54.46          54.46          54.46          0              0              0            
     38700   4009.8931     -36271.529      5688.555       584318.08      161522.46      54.46          54.46          54.46          0              0              0            
     38800   3997.9374     -36253.596      5671.5942      584279.22      161522.46      54.46          54.46          54.46          0              0              0            
     38900   4026.0425     -36293.145      5711.465       583266.59      161522.46      54.46          54.46          54.46          0              0              0            
     39000   4008.282      -36267.035      5686.2695      583920.97      161522.46      54.46          54.46          54.46          0              0              0            
     39100   4017.163      -36279.772      5698.8683      584187.47      161522.46      54.46          54.46          54.46          0              0              0            
     39200   4024.9581     -36291.384      5709.9267      583374.75      161522.46      54.46          54.46          54.46          0              0              0            
     39300   4011.2159     -36272.226      5690.4315      584211.48      161522.46      54.46          54.46          54.46          0              0              0            
     39400   3967.9221     -36211.306      5629.0137      586463.92      161522.46      54.46          54.46          54.46          0              0              0            
     39500   3995.4309     -36250.442      5668.0385      584735         161522.46      54.46          54.46          54.46          0              0              0            
     39600   4036.9695     -36310.158      5726.9664      582751.7       161522.46      54.46          54.46          54.46          0              0              0            
     39700   4018.1695     -36284.741      5700.2962      583664.9       161522.46      54.46          54.46          54.46          0              0              0            
     39800   4034.287      -36309.422      5723.1609      581949.59      161522.46      54.46          54.46          54.46          0              0              0            
     39900   4019.1795     -36289.193      5701.7289      583497.13      161522.46      54.46          54.46          54.46          0              0              0            
     40000   3988.6568     -36246.687      5658.4286      584817.59      161522.46      54.46          54.46          54.46          0              0              0            
     40100   3998.0129     -36260.303      5671.7014      584338.01      161522.46      54.46          54.46          54.46          0              0              0            
     40200   4025.778      -36299.536      5711.0898      582969.34      161522.46      54.46          54.46          54.46          0              0              0            
     40300   4007.5502     -36273.152      5685.2313      583800.94      161522.46      54.46          54.46          54.46          0              0              0            
     40400   4003.0989     -36266.358      5678.9165      584147.62      161522.46      54.46          54.46          54.46          0              0              0            
     40500   3977.0927     -36228.188      5642.0234      584800.59      161522.46      54.46          54.46          54.46          0              0              0            
     40600   4004.9989     -36265.974      5681.612       584471.23      161522.46      54.46          54.46          54.46          0              0              0            
     40700   3979.1326     -36227.676      5644.9172      585491.25      161522.46      54.46          54.46          54.46          0              0              0            
     40800   4029.6726     -36298.857      5716.6148      582480.54      161522.46      54.46          54.46          54.46          0              0              0            
     40900   4027.0072     -36295.276      5712.8336      583041.41      161522.46      54.46          54.46          54.46          0              0              0            
     41000   4001.2338     -36258.912      5676.2707      584008.78      161522.46      54.46          54.46          54.46          0              0              0            
     41100   4020.3037     -36286.029      5703.3239      584065.35      161522.46      54.46          54.46          54.46          0              0              0            
     41200   3998.7348     -36254.724      5672.7255      583895.92      161522.46      54.46          54.46          54.46          0              0              0            
     41300   4012.5819     -36273.277      5692.3694      583810.2       161522.46      54.46          54.46          54.46          0              0              0            
     41400   3966.3278     -36206.904      5626.752       586357.17      161522.46      54.46          54.46          54.46          0              0              0            
     41500   3990.9706     -36241.657      5661.7109      585120.76      161522.46      54.46          54.46          54.46          0              0              0            
     41600   4029.4345     -36296.251      5716.277       583361.45      161522.46      54.46          54.46          54.46          0              0              0            
     41700   4010.4765     -36269.506      5689.3826      583738.76      161522.46      54.46          54.46          54.46          0              0              0            
     41800   4002.518      -36258.638      5678.0925      584767.19      161522.46      54.46          54.46          54.46          0              0              0            
     41900   4004.4665     -36261.734      5680.8566      583844.55      161522.46      54.46          54.46          54.46          0              0              0            
     42000   4014.39       -36276.506      5694.9344      583382.91      161522.46      54.46          54.46          54.46          0              0              0            
     42100   3997.9765     -36253.558      5671.6498      584650.83      161522.46      54.46          54.46          54.46          0              0              0            
     42200   4011.3406     -36272.498      5690.6084      583675.04      161522.46      54.46          54.46          54.46          0              0              0            
     42300   3983.6957     -36233.398      5651.3905      585652.12      161522.46      54.46          54.46          54.46          0              0              0            
     42400   4008.2819     -36267.955      5686.2693      584383.19      161522.46      54.46          54.46          54.46          0              0              0            
     42500   3988.8434     -36241.047      5658.6933      584982.33      161522.46      54.46          54.46          54.46          0              0              0            
     42600   4001.3741     -36259.305      5676.4697      584503.91      161522.46      54.46          54.46          54.46          0              0              0            
     42700   4027.8454     -36298.342      5714.0226      582969.35      161522.46      54.46          54.46          54.46          0              0              0            
     42800   3975.7158     -36225.97       5640.0701      586024.39      161522.46      54.46          54.46          54.46          0              0              0            
     42900   3969.2634     -36216.937      5630.9164      585591.05      161522.46      54.46          54.46          54.46          0              0              0            
     43000   3966.761      -36212.692      5627.3665      586572.61      161522.46      54.46          54.46          54.46          0              0              0            
     43100   4022.9189     -36291.723      5707.0339      583222.17      161522.46      54.46          54.46          54.46          0              0              0            
     43200   4022.1016     -36290.823      5705.8744      583275.04      161522.46      54.46          54.46          54.46          0              0              0            
     43300   3985.4315     -36239.208      5653.8531      585108.6       161522.46      54.46          54.46          54.46          0              0              0            
     43400   3991.4963     -36247.531      5662.4568      584790.44      161522.46      54.46          54.46          54.46          0              0              0            
     43500   4055.3896     -36338.136      5753.0977      581405.12      161522.46      54.46          54.46          54.46          0              0              0            
[...]
   1989600   4001.5235     -36273.153      5676.6816      581644.03      161522.46      54.46          54.46          54.46          0              0              0            
   1989700   4012.6934     -36288.292      5692.5276      581048.57      161522.46      54.46          54.46          54.46          0              0              0            
   1989800   3978.2863     -36239.022      5643.7166      582491.59      161522.46      54.46          54.46          54.46          0              0              0            
   1989900   3979.5881     -36240.063      5645.5634      582318.43      161522.46      54.46          54.46          54.46          0              0              0            
   1990000   3995.8875     -36262.335      5668.6863      581706.03      161522.46      54.46          54.46          54.46          0              0              0            
   1990100   4001.9796     -36270.65       5677.3286      581518.32      161522.46      54.46          54.46          54.46          0              0              0            
   1990200   3974.0274     -36230.369      5637.6748      582398.68      161522.46      54.46          54.46          54.46          0              0              0            
   1990300   4005.1549     -36273.985      5681.8332      581913.88      161522.46      54.46          54.46          54.46          0              0              0            
   1990400   4005.4082     -36274.711      5682.1926      581197.98      161522.46      54.46          54.46          54.46          0              0              0            
   1990500   3987.4401     -36250.455      5656.7026      582191.88      161522.46      54.46          54.46          54.46          0              0              0            
   1990600   4015.7142     -36291.647      5696.813       580337.72      161522.46      54.46          54.46          54.46          0              0              0            
   1990700   4017.9617     -36296.269      5700.0013      580366.01      161522.46      54.46          54.46          54.46          0              0              0            
   1990800   4001.9284     -36274.034      5677.2561      581576.83      161522.46      54.46          54.46          54.46          0              0              0            
   1990900   3973.8192     -36234.168      5637.3794      582107.99      161522.46      54.46          54.46          54.46          0              0              0            
   1991000   4021.143      -36300.888      5704.5144      580428.05      161522.46      54.46          54.46          54.46          0              0              0            
   1991100   4003.9243     -36276.26       5680.0875      581548.06      161522.46      54.46          54.46          54.46          0              0              0            
   1991200   4010.9623     -36285.758      5690.0718      580746.04      161522.46      54.46          54.46          54.46          0              0              0            
   1991300   4034.7938     -36318.984      5723.8799      580334.85      161522.46      54.46          54.46          54.46          0              0              0            
   1991400   4001.9516     -36271.634      5677.2889      581450.67      161522.46      54.46          54.46          54.46          0              0              0            
   1991500   3971.442      -36228.335      5634.0071      583391.6       161522.46      54.46          54.46          54.46          0              0              0            
   1991600   3982.6316     -36244.8        5649.8811      582447.85      161522.46      54.46          54.46          54.46          0              0              0            
   1991700   4008.0521     -36281.592      5685.9433      581151.5       161522.46      54.46          54.46          54.46          0              0              0            
   1991800   4025.5474     -36306.923      5710.7627      580139.71      161522.46      54.46          54.46          54.46          0              0              0            
   1991900   3968.8587     -36226.949      5630.3424      582768.37      161522.46      54.46          54.46          54.46          0              0              0            
   1992000   3991.2321     -36259.796      5662.0819      581453.35      161522.46      54.46          54.46          54.46          0              0              0            
   1992100   3978.2977     -36242.405      5643.7329      582237.17      161522.46      54.46          54.46          54.46          0              0              0            
   1992200   4010.2479     -36287.244      5689.0584      580863.12      161522.46      54.46          54.46          54.46          0              0              0            
   1992300   3984.5068     -36250.798      5652.5413      581944.67      161522.46      54.46          54.46          54.46          0              0              0            
   1992400   3989.8976     -36259.118      5660.1888      581324.84      161522.46      54.46          54.46          54.46          0              0              0            
   1992500   3993.4196     -36265.073      5665.1852      581636.74      161522.46      54.46          54.46          54.46          0              0              0            
   1992600   3998.6297     -36272.469      5672.5765      581111.11      161522.46      54.46          54.46          54.46          0              0              0            
   1992700   4012.6348     -36292.576      5692.4445      581088.69      161522.46      54.46          54.46          54.46          0              0              0            
   1992800   4061.778      -36362.427      5762.1605      578730.08      161522.46      54.46          54.46          54.46          0              0              0            
   1992900   4021.8615     -36304.959      5705.5337      580080.68      161522.46      54.46          54.46          54.46          0              0              0            
   1993000   4022.8044     -36305.638      5706.8713      580386.18      161522.46      54.46          54.46          54.46          0              0              0            
   1993100   4023.1018     -36306.196      5707.2933      580147.34      161522.46      54.46          54.46          54.46          0              0              0            
   1993200   4009.9327     -36287.672      5688.6112      581025.38      161522.46      54.46          54.46          54.46          0              0              0            
   1993300   4034.3071     -36321.943      5723.1894      579572.75      161522.46      54.46          54.46          54.46          0              0              0            
   1993400   4001.5236     -36275.116      5676.6818      580817.34      161522.46      54.46          54.46          54.46          0              0              0            
   1993500   3962.8003     -36220.356      5621.7478      583096.55      161522.46      54.46          54.46          54.46          0              0              0            
   1993600   4007.7037     -36284.137      5685.4491      581373.63      161522.46      54.46          54.46          54.46          0              0              0            
   1993700   3981.234      -36246.707      5647.8983      582253.38      161522.46      54.46          54.46          54.46          0              0              0            
   1993800   3981.0111     -36246.094      5647.5822      582793.4       161522.46      54.46          54.46          54.46          0              0              0            
   1993900   4017.5849     -36298.367      5699.4669      580833.3       161522.46      54.46          54.46          54.46          0              0              0            
   1994000   4006.551      -36283.726      5683.8138      581404.91      161522.46      54.46          54.46          54.46          0              0              0            
   1994100   4003.7208     -36280.035      5679.7988      581063.42      161522.46      54.46          54.46          54.46          0              0              0            
   1994200   4019.828      -36303.448      5702.649       580327.05      161522.46      54.46          54.46          54.46          0              0              0            
   1994300   4016.8314     -36299.258      5698.3979      580286.66      161522.46      54.46          54.46          54.46          0              0              0            
   1994400   3986.2721     -36255.31       5655.0455      582018.08      161522.46      54.46          54.46          54.46          0              0              0            
   1994500   3978.161      -36243.104      5643.5388      582139.98      161522.46      54.46          54.46          54.46          0              0              0            
   1994600   4021.9296     -36304.548      5705.6303      580386.73      161522.46      54.46          54.46          54.46          0              0              0            
   1994700   3961.2558     -36217.846      5619.5567      582783.55      161522.46      54.46          54.46          54.46          0              0              0            
   1994800   4002.492      -36275.199      5678.0556      581173.39      161522.46      54.46          54.46          54.46          0              0              0            
   1994900   3982.5359     -36246.485      5649.7453      582725.21      161522.46      54.46          54.46          54.46          0              0              0            
   1995000   3993.1824     -36261.434      5664.8487      581603.33      161522.46      54.46          54.46          54.46          0              0              0            
   1995100   3986.4038     -36251.966      5655.2324      582423.65      161522.46      54.46          54.46          54.46          0              0              0            
   1995200   4033.5404     -36317.872      5722.1018      579761.01      161522.46      54.46          54.46          54.46          0              0              0            
   1995300   4023.0007     -36302.442      5707.1499      580035.4       161522.46      54.46          54.46          54.46          0              0              0            
   1995400   4019.9932     -36298.44       5702.8833      580470.16      161522.46      54.46          54.46          54.46          0              0              0            
   1995500   4019.816      -36299.143      5702.6319      581157.59      161522.46      54.46          54.46          54.46          0              0              0            
   1995600   3994.8831     -36264.338      5667.2614      581705.64      161522.46      54.46          54.46          54.46          0              0              0            
   1995700   3998.4112     -36269.572      5672.2664      581929.64      161522.46      54.46          54.46          54.46          0              0              0            
   1995800   3994.6727     -36265.057      5666.963       581267.74      161522.46      54.46          54.46          54.46          0              0              0            
   1995900   4029.1031     -36315.409      5715.8069      579507.13      161522.46      54.46          54.46          54.46          0              0              0            
   1996000   3979.2402     -36245.512      5645.0699      581994.45      161522.46      54.46          54.46          54.46          0              0              0            
   1996100   4006.5685     -36284.179      5683.8386      580882.41      161522.46      54.46          54.46          54.46          0              0              0            
   1996200   3999.8289     -36273.409      5674.2776      581551.99      161522.46      54.46          54.46          54.46          0              0              0            
   1996300   3972.7582     -36234.193      5635.8743      582720.37      161522.46      54.46          54.46          54.46          0              0              0            
   1996400   4018.1183     -36298.326      5700.2235      580584.54      161522.46      54.46          54.46          54.46          0              0              0            
   1996500   4040.7703     -36330.474      5732.3583      579416.92      161522.46      54.46          54.46          54.46          0              0              0            
   1996600   4010.5027     -36288.33       5689.4198      580527.86      161522.46      54.46          54.46          54.46          0              0              0            
   1996700   4006.3145     -36282.986      5683.4784      580298.68      161522.46      54.46          54.46          54.46          0              0              0            
   1996800   4015.0987     -36295.929      5695.9398      580706.05      161522.46      54.46          54.46          54.46          0              0              0            
   1996900   4014.839      -36296.28       5695.5714      580412.85      161522.46      54.46          54.46          54.46          0              0              0            
   1997000   3975.513      -36240.87       5639.7823      582368.82      161522.46      54.46          54.46          54.46          0              0              0            
   1997100   4022.1364     -36307.157      5705.9238      580046.71      161522.46      54.46          54.46          54.46          0              0              0            
   1997200   3978.0295     -36244.956      5643.3524      581802.19      161522.46      54.46          54.46          54.46          0              0              0            
   1997300   3972.18       -36236.727      5635.0541      582634.61      161522.46      54.46          54.46          54.46          0              0              0            
   1997400   4014.1857     -36295.76       5694.6446      580854.37      161522.46      54.46          54.46          54.46          0              0              0            
   1997500   4027.8283     -36314.795      5713.9985      580217.38      161522.46      54.46          54.46          54.46          0              0              0            
   1997600   3969.303      -36232.042      5630.9727      583138.05      161522.46      54.46          54.46          54.46          0              0              0            
   1997700   3962.544      -36222.539      5621.3841      583218.52      161522.46      54.46          54.46          54.46          0              0              0            
   1997800   4022.5712     -36306.771      5706.5405      580211.02      161522.46      54.46          54.46          54.46          0              0              0            
   1997900   4010.1945     -36288.88       5688.9825      580558.92      161522.46      54.46          54.46          54.46          0              0              0            
   1998000   3998.1266     -36271.44       5671.8627      582172.5       161522.46      54.46          54.46          54.46          0              0              0            
   1998100   4024.1349     -36307.623      5708.7589      580113.6       161522.46      54.46          54.46          54.46          0              0              0            
   1998200   4020.3328     -36301.753      5703.3651      580529.26      161522.46      54.46          54.46          54.46          0              0              0            
   1998300   4014.2933     -36292.878      5694.7973      580619.49      161522.46      54.46          54.46          54.46          0              0              0            
   1998400   4009.5189     -36285.864      5688.0241      580951.69      161522.46      54.46          54.46          54.46          0              0              0            
   1998500   4049.5693     -36343.419      5744.8409      578995.85      161522.46      54.46          54.46          54.46          0              0              0            
   1998600   4019.1569     -36301.299      5701.697       580183.9       161522.46      54.46          54.46          54.46          0              0              0            
   1998700   4015.0969     -36295.334      5695.9372      580861.24      161522.46      54.46          54.46          54.46          0              0              0            
   1998800   3996.9418     -36269.393      5670.1819      581299.8       161522.46      54.46          54.46          54.46          0              0              0            
   1998900   3993.3898     -36264.136      5665.1429      581394.24      161522.46      54.46          54.46          54.46          0              0              0            
   1999000   3990.4166     -36259.298      5660.925       581572.65      161522.46      54.46          54.46          54.46          0              0              0            
   1999100   3976.6842     -36240.54       5641.4438      583022.23      161522.46      54.46          54.46          54.46          0              0              0            
   1999200   3940.4043     -36188.975      5589.9761      583788.39      161522.46      54.46          54.46          54.46          0              0              0            
   1999300   4002.2558     -36276.236      5677.7205      580962.8       161522.46      54.46          54.46          54.46          0              0              0            
   1999400   3999.7171     -36272.31       5674.119       581349.62      161522.46      54.46          54.46          54.46          0              0              0            
   1999500   3973.8601     -36235.354      5637.4376      582609.63      161522.46      54.46          54.46          54.46          0              0              0            
   1999600   4007.8526     -36282.19       5685.6603      580863.1       161522.46      54.46          54.46          54.46          0              0              0            
   1999700   3978.8944     -36239.408      5644.5793      581908.61      161522.46      54.46          54.46          54.46          0              0              0            
   1999800   3974.5397     -36231.409      5638.4017      582907         161522.46      54.46          54.46          54.46          0              0              0            
   1999900   4015.8873     -36288.642      5697.0586      580394.44      161522.46      54.46          54.46          54.46          0              0              0            
   2000000   3974.8864     -36229.677      5638.8934      582296.24      161522.46      54.46          54.46          54.46          0              0              0            
Loop time of 64536 on 4 procs for 2000000 steps with 10976 atoms

Performance: 5.355 ns/day, 4.482 hours/ns, 30.990 timesteps/s, 340.151 katom-step/s
55.7% CPU use with 1 MPI tasks x 4 OpenMP threads

MPI task timing breakdown:
Section |  min time  |  avg time  |  max time  |%varavg| %total
---------------------------------------------------------------
Pair    | 62734      | 62734      | 62734      |   0.0 | 97.21
Neigh   | 723.69     | 723.69     | 723.69     |   0.0 |  1.12
Comm    | 240.07     | 240.07     | 240.07     |   0.0 |  0.37
Output  | 1.5801     | 1.5801     | 1.5801     |   0.0 |  0.00
Modify  | 722.26     | 722.26     | 722.26     |   0.0 |  1.12
Other   |            | 114.1      |            |       |  0.18

Nlocal:          10976 ave       10976 max       10976 min
Histogram: 1 0 0 0 0 0 0 0 0 0
Nghost:          14345 ave       14345 max       14345 min
Histogram: 1 0 0 0 0 0 0 0 0 0
Neighs:         955384 ave      955384 max      955384 min
Histogram: 1 0 0 0 0 0 0 0 0 0

Total # of neighbors = 955384
Ave neighs/atom = 87.043003
Neighbor list builds = 87386
Dangerous builds = 0
write_restart Restart.final
System init for write_restart ...
No /omp style for force computation currently active
Total wall time: 17:55:36

