LAMMPS (22 Dec 2022)
OMP_NUM_THREADS environment is not set. Defaulting to 1 thread. (src/comm.cpp:98)
  using 1 OpenMP thread(s) per MPI task
# AuPd nanoparticle, heating
#1 general
units		metal
dimension	3
atom_style      atomic
neighbor        0.3 bin

#2 structure
boundary	p p p
read_data	supercell.lmp
Reading data file ...
  orthogonal box = (0 0 0) to (54.46 54.46 54.46)
  1 by 1 by 1 MPI processor grid
  reading atoms ...
  10976 atoms
  read_data CPU = 0.034 seconds
#mass        1 196.967
#mass		2 106.42


#3 variables
# Variables que controlan extension de simulacion
variable        tstep equal 0.001
variable nramp equal 200000
variable nequil equal 100000
variable nstat equal 100000
variable ntherm equal v_nequil/10
variable ndump equal v_nstat/20

# temperatura de melting
variable   tempm equal 1100
variable 	natoms equal "count(all)"
variable	temp0 equal 1.0
variable    	temp1 equal 800
variable tempa equal v_tempm-50
variable    tempb equal v_tempm+50
variable    	temp2 equal 2100
variable n1 equal (v_tempa-v_temp1)/50
variable n2 equal (v_tempb-v_tempa)/50
variable n3 equal (v_temp2-v_tempb)/50
variable	pressure equal 0.0


#4 potentials
pair_style eam
pair_coeff * * Pd_u3.eam
Reading eam potential file Pd_u3.eam with DATE: 2007-06-11

#5 optimize at 0 K
#dump           1 all custom 1 dump.minimization id type x y z
#fix		1 all box/relax dilate all #Para relajar la caja
#min_style	cg
#minimize	1.0e-6 1.06e-6 10000 10000
#run 1
#undump		1
#unfix		1

#6 optimize at T=1
compute		peratom all pe/atom
reset_timestep	0
timestep	${tstep}
timestep	0.001

#Se generan velocidades aleatorias
velocity	all create ${temp0} 12345 mom yes rot yes
velocity	all create 1 12345 mom yes rot yes

#Se realiza NPT
fix             1 all npt temp ${temp0} ${temp0} 0.1 iso 0.0 0.0 1.0
fix             1 all npt temp 1 ${temp0} 0.1 iso 0.0 0.0 1.0
fix             1 all npt temp 1 1 0.1 iso 0.0 0.0 1.0
dump            1 all custom ${ndump} dump.${temp0} id type x y z c_peratom fx fy fz
dump            1 all custom 5000 dump.${temp0} id type x y z c_peratom fx fy fz
dump            1 all custom 5000 dump.1 id type x y z c_peratom fx fy fz
dump_modify   	1 element Au
thermo		${ntherm}
thermo		10000
thermo_style	custom step temp pe

#neigh_modify    once yes
run		${nequil}
run		100000
Neighbor list info ...
  update: every = 1 steps, delay = 0 steps, check = yes
  max neighbors/atom: 2000, page size: 100000
  master list distance cutoff = 5.6
  ghost atom cutoff = 5.6
  binsize = 2.8, bins = 20 20 20
  1 neighbor lists, perpetual/occasional/extra = 1 0 0
  (1) pair eam, perpetual
      attributes: half, newton on
      pair build: half/bin/atomonly/newton
      stencil: half/bin/3d
      bin: standard
Per MPI rank memory allocation (min/avg/max) = 10.09 | 10.09 | 10.09 Mbytes
   Step          Temp          PotEng    
         0   1             -42916.16     
     10000   0.97904447    -42914.702    
     20000   0.97584777    -42914.702    
     30000   0.98316312    -42914.719    
     40000   0.97336677    -42914.715    
     50000   0.97529269    -42914.707    
     60000   1.009341      -42914.762    
     70000   0.98400219    -42914.722    
     80000   0.97700711    -42914.713    
     90000   0.9926765     -42914.722    
    100000   1.0024498     -42914.741    
Loop time of 921.943 on 1 procs for 100000 steps with 10976 atoms

Performance: 9.372 ns/day, 2.561 hours/ns, 108.467 timesteps/s, 1.191 Matom-step/s
67.9% CPU use with 1 MPI tasks x 1 OpenMP threads

MPI task timing breakdown:
Section |  min time  |  avg time  |  max time  |%varavg| %total
---------------------------------------------------------------
Pair    | 873.23     | 873.23     | 873.23     |   0.0 | 94.72
Neigh   | 0          | 0          | 0          |   0.0 |  0.00
Comm    | 5.2306     | 5.2306     | 5.2306     |   0.0 |  0.57
Output  | 0.70183    | 0.70183    | 0.70183    |   0.0 |  0.08
Modify  | 37.506     | 37.506     | 37.506     |   0.0 |  4.07
Other   |            | 5.275      |            |       |  0.57

Nlocal:          10976 ave       10976 max       10976 min
Histogram: 1 0 0 0 0 0 0 0 0 0
Nghost:           6993 ave        6993 max        6993 min
Histogram: 1 0 0 0 0 0 0 0 0 0
Neighs:         296352 ave      296352 max      296352 min
Histogram: 1 0 0 0 0 0 0 0 0 0

Total # of neighbors = 296352
Ave neighs/atom = 27
Neighbor list builds = 0
Dangerous builds = 0
unfix		1
undump      1

#7 calentamiento
reset_timestep	0

#Se generan velocidades aleatorias a T inicial
velocity	all create ${temp1} 12346 mom yes rot yes
velocity	all create 800 12346 mom yes rot yes
variable	TEMPE equal "1.0*temp"
variable	PEA equal "pe/v_natoms"

#thermo_style	custom step pe temp PEA
fix		5 all print 1000 "${TEMPE}   ${PEA}" file TEMPvsPEA.dat screen no
fix		6 all ave/time 100 1000 400000 v_TEMPE v_PEA file ave.dat
compute myRDF all rdf 50
fix 7 all ave/time 100 1000 400000 c_myRDF[*] file tmp.rdf mode vector

#Comienza ciclo de calentamiento
print	  	"Heating starts, low temperature"
Heating starts, low temperature
label		loop
variable	a loop ${n1}
variable	a loop 5
variable	newtemp1 equal (v_a-1)*50+v_temp1
variable	newtemp2 equal v_newtemp1+50

#Rampa de T
print	  	"Temperature ramp starts"
Temperature ramp starts
fix             1 all npt temp ${newtemp1} ${newtemp2} 0.1 iso 0.0 0.0 1.0
fix             1 all npt temp 800 ${newtemp2} 0.1 iso 0.0 0.0 1.0
fix             1 all npt temp 800 850 0.1 iso 0.0 0.0 1.0
run		${nramp}
run		200000
Neighbor list info ...
  update: every = 1 steps, delay = 0 steps, check = yes
  max neighbors/atom: 2000, page size: 100000
  master list distance cutoff = 5.6
  ghost atom cutoff = 5.6
  binsize = 2.8, bins = 20 20 20
  2 neighbor lists, perpetual/occasional/extra = 1 1 0
  (1) pair eam, perpetual
      attributes: half, newton on
      pair build: half/bin/atomonly/newton
      stencil: half/bin/3d
      bin: standard
  (2) compute rdf, occasional, copy from (1)
      attributes: half, newton on
      pair build: copy
      stencil: none
      bin: none
Per MPI rank memory allocation (min/avg/max) = 8.087 | 8.087 | 8.087 Mbytes
   Step          Temp          PotEng    
         0   800           -42914.741    
     10000   801.10238     -41692.305    
     20000   803.8533      -41692.624    
     30000   812.1504      -41684.839    
     40000   804.01824     -41693.48     
     50000   809.67083     -41671.955    
     60000   808.73013     -41668.311    
     70000   813.79298     -41656.538    
     80000   825.24046     -41666.576    
     90000   821.97749     -41662.743    
    100000   824.49056     -41664.156    
    110000   816.98578     -41648.75     
    120000   825.15126     -41656.547    
    130000   839.81836     -41653.091    
    140000   832.66233     -41658.244    
    150000   833.71402     -41624.079    
    160000   838.62446     -41618.39     
    170000   843.961       -41607.384    
    180000   840.44783     -41608.656    
    190000   851.27915     -41599.682    
    200000   846.83377     -41620.462    
Loop time of 2222.76 on 1 procs for 200000 steps with 10976 atoms

Performance: 7.774 ns/day, 3.087 hours/ns, 89.978 timesteps/s, 987.602 katom-step/s
57.0% CPU use with 1 MPI tasks x 1 OpenMP threads

MPI task timing breakdown:
Section |  min time  |  avg time  |  max time  |%varavg| %total
---------------------------------------------------------------
Pair    | 1976.4     | 1976.4     | 1976.4     |   0.0 | 88.92
Neigh   | 148.08     | 148.08     | 148.08     |   0.0 |  6.66
Comm    | 13.556     | 13.556     | 13.556     |   0.0 |  0.61
Output  | 0.000672   | 0.000672   | 0.000672   |   0.0 |  0.00
Modify  | 72.938     | 72.938     | 72.938     |   0.0 |  3.28
Other   |            | 11.8       |            |       |  0.53

Nlocal:          10976 ave       10976 max       10976 min
Histogram: 1 0 0 0 0 0 0 0 0 0
Nghost:           7123 ave        7123 max        7123 min
Histogram: 1 0 0 0 0 0 0 0 0 0
Neighs:         268672 ave      268672 max      268672 min
Histogram: 1 0 0 0 0 0 0 0 0 0

Total # of neighbors = 268672
Ave neighs/atom = 24.478134
Neighbor list builds = 15613
Dangerous builds = 0
unfix		1

#Equilibrio a nueva T
print	  	"Equilibration starts"
Equilibration starts
fix		2 all npt temp ${newtemp2} ${newtemp2} 0.1 iso 0.0 0.0 1.0
fix		2 all npt temp 850 ${newtemp2} 0.1 iso 0.0 0.0 1.0
fix		2 all npt temp 850 850 0.1 iso 0.0 0.0 1.0
run 		${nequil}
run 		100000
Per MPI rank memory allocation (min/avg/max) = 8.091 | 8.091 | 8.091 Mbytes
   Step          Temp          PotEng    
    200000   846.83377     -41620.462    
    210000   847.8118      -41599.617    
    220000   843.93101     -41611.86     
    230000   847.29091     -41596.966    
    240000   868.52117     -41608.34     
    250000   841.80156     -41604.576    
    260000   864.28533     -41595.077    
    270000   863.31264     -41621.237    
    280000   852.01192     -41617.647    
    290000   855.89576     -41582.924    
    300000   854.25422     -41598.115    
Loop time of 1101.21 on 1 procs for 100000 steps with 10976 atoms

Performance: 7.846 ns/day, 3.059 hours/ns, 90.809 timesteps/s, 996.724 katom-step/s
55.6% CPU use with 1 MPI tasks x 1 OpenMP threads

MPI task timing breakdown:
Section |  min time  |  avg time  |  max time  |%varavg| %total
---------------------------------------------------------------
Pair    | 978.85     | 978.85     | 978.85     |   0.0 | 88.89
Neigh   | 75.17      | 75.17      | 75.17      |   0.0 |  6.83
Comm    | 6.3953     | 6.3953     | 6.3953     |   0.0 |  0.58
Output  | 0.000315   | 0.000315   | 0.000315   |   0.0 |  0.00
Modify  | 35.204     | 35.204     | 35.204     |   0.0 |  3.20
Other   |            | 5.591      |            |       |  0.51

Nlocal:          10976 ave       10976 max       10976 min
Histogram: 1 0 0 0 0 0 0 0 0 0
Nghost:           7092 ave        7092 max        7092 min
Histogram: 1 0 0 0 0 0 0 0 0 0
Neighs:         268663 ave      268663 max      268663 min
Histogram: 1 0 0 0 0 0 0 0 0 0

Total # of neighbors = 268663
Ave neighs/atom = 24.477314
Neighbor list builds = 7925
Dangerous builds = 0
unfix		2

#Se colecta estadistica
print	  	"Stats collecting starts"
Stats collecting starts
fix		3 all npt temp ${newtemp2} ${newtemp2} 0.1 iso 0.0 0.0 1.0
fix		3 all npt temp 850 ${newtemp2} 0.1 iso 0.0 0.0 1.0
fix		3 all npt temp 850 850 0.1 iso 0.0 0.0 1.0
dump            3 all custom ${ndump} dump.${newtemp2} id type x y z c_peratom fx fy fz
dump            3 all custom 5000 dump.${newtemp2} id type x y z c_peratom fx fy fz
dump            3 all custom 5000 dump.850 id type x y z c_peratom fx fy fz
dump_modify   	3 element Au
run		${nstat}
run		100000
Per MPI rank memory allocation (min/avg/max) = 10.34 | 10.34 | 10.34 Mbytes
   Step          Temp          PotEng    
    300000   854.25422     -41598.115    
    310000   854.67766     -41626.398    
    320000   851.40468     -41612.589    
    330000   866.9811      -41617.643    
    340000   851.81532     -41600.113    
    350000   852.01576     -41596.794    
    360000   848.92893     -41612.109    
    370000   844.59363     -41625.869    
    380000   854.33093     -41596.587    
    390000   851.6         -41613.339    
    400000   845.97686     -41611.408    
Loop time of 993.472 on 1 procs for 100000 steps with 10976 atoms

Performance: 8.697 ns/day, 2.760 hours/ns, 100.657 timesteps/s, 1.105 Matom-step/s
85.0% CPU use with 1 MPI tasks x 1 OpenMP threads

MPI task timing breakdown:
Section |  min time  |  avg time  |  max time  |%varavg| %total
---------------------------------------------------------------
Pair    | 882.42     | 882.42     | 882.42     |   0.0 | 88.82
Neigh   | 70.889     | 70.889     | 70.889     |   0.0 |  7.14
Comm    | 4.5721     | 4.5721     | 4.5721     |   0.0 |  0.46
Output  | 0.64791    | 0.64791    | 0.64791    |   0.0 |  0.07
Modify  | 30.773     | 30.773     | 30.773     |   0.0 |  3.10
Other   |            | 4.173      |            |       |  0.42

Nlocal:          10976 ave       10976 max       10976 min
Histogram: 1 0 0 0 0 0 0 0 0 0
Nghost:           7127 ave        7127 max        7127 min
Histogram: 1 0 0 0 0 0 0 0 0 0
Neighs:         268974 ave      268974 max      268974 min
Histogram: 1 0 0 0 0 0 0 0 0 0

Total # of neighbors = 268974
Ave neighs/atom = 24.505649
Neighbor list builds = 7926
Dangerous builds = 0uunfix		3
undump		3

#if "${newtemp2} > ${tempa}" then "jump SELF break"
next a
jump SELF loop
variable	a loop ${n1}
variable	a loop 5
variable	newtemp1 equal (v_a-1)*50+v_temp1
variable	newtemp2 equal v_newtemp1+50

#Rampa de T
print	  	"Temperature ramp starts"
Temperature ramp starts
fix             1 all npt temp ${newtemp1} ${newtemp2} 0.1 iso 0.0 0.0 1.0
fix             1 all npt temp 850 ${newtemp2} 0.1 iso 0.0 0.0 1.0
fix             1 all npt temp 850 900 0.1 iso 0.0 0.0 1.0
run		${nramp}
run		200000
Per MPI rank memory allocation (min/avg/max) = 9.617 | 9.617 | 9.617 Mbytes
   Step          Temp          PotEng    
    400000   845.97686     -41611.408    
    410000   849.43908     -41599.091    
    420000   860.92614     -41600.686    
    430000   861.61986     -41619.481    
    440000   858.77118     -41588.933    
    450000   850.59167     -41586.513    
    460000   863.48233     -41581.248    
    470000   867.21635     -41601.048    
    480000   876.74422     -41572.58     
    490000   865.99753     -41554.531    
    500000   865.16985     -41564.954    
    510000   879.11194     -41586.109    
    520000   872.29207     -41561.594    
    530000   881.10798     -41572.884    
    540000   889.77782     -41564.9      
    550000   879.08865     -41556.446    
    560000   891.78847     -41556.722    
    570000   900.74137     -41535.22     
    580000   900.36937     -41539.345    
    590000   898.51064     -41534.913    
    600000   904.51655     -41516.508    
Loop time of 1977.86 on 1 procs for 200000 steps with 10976 atoms

Performance: 8.737 ns/day, 2.747 hours/ns, 101.119 timesteps/s, 1.110 Matom-step/s
85.2% CPU use with 1 MPI tasks x 1 OpenMP threads

MPI task timing breakdown:
Section |  min time  |  avg time  |  max time  |%varavg| %total
---------------------------------------------------------------
Pair    | 1761.6     | 1761.6     | 1761.6     |   0.0 | 89.07
Neigh   | 143.8      | 143.8      | 143.8      |   0.0 |  7.27
Comm    | 9.1476     | 9.1476     | 9.1476     |   0.0 |  0.46
Output  | 0.000574   | 0.000574   | 0.000574   |   0.0 |  0.00
Modify  | 54.946     | 54.946     | 54.946     |   0.0 |  2.78
Other   |            | 8.33       |            |       |  0.42

Nlocal:          10976 ave       10976 max       10976 min
Histogram: 1 0 0 0 0 0 0 0 0 0
Nghost:           7139 ave        7139 max        7139 min
Histogram: 1 0 0 0 0 0 0 0 0 0
Neighs:         268232 ave      268232 max      268232 min
Histogram: 1 0 0 0 0 0 0 0 0 0

Total # of neighbors = 268232
Ave neighs/atom = 24.438047
Neighbor list builds = 16053
Dangerous builds = 0ununfix		1

#Equilibrio a nueva T
print	  	"Equilibration starts"
Equilibration starts
fix		2 all npt temp ${newtemp2} ${newtemp2} 0.1 iso 0.0 0.0 1.0
fix		2 all npt temp 900 ${newtemp2} 0.1 iso 0.0 0.0 1.0
fix		2 all npt temp 900 900 0.1 iso 0.0 0.0 1.0
run 		${nequil}
run 		100000
Per MPI rank memory allocation (min/avg/max) = 9.617 | 9.617 | 9.617 Mbytes
   Step          Temp          PotEng    
    600000   904.51655     -41516.508    
    610000   896.98322     -41513.218    
    620000   905.14383     -41514.29     
    630000   898.63069     -41512.083    
    640000   893.48161     -41519.693    
    650000   902.56392     -41522.023    
    660000   893.71956     -41524.067    
    670000   904.38364     -41521.849    
    680000   898.51949     -41525.654    
    690000   902.42404     -41528.686    
    700000   902.53939     -41514.166    
Loop time of 997.339 on 1 procs for 100000 steps with 10976 atoms

Performance: 8.663 ns/day, 2.770 hours/ns, 100.267 timesteps/s, 1.101 Matom-step/s
84.2% CPU use with 1 MPI tasks x 1 OpenMP threads

MPI task timing breakdown:
Section |  min time  |  avg time  |  max time  |%varavg| %total
---------------------------------------------------------------
Pair    | 887.93     | 887.93     | 887.93     |   0.0 | 89.03
Neigh   | 72.972     | 72.972     | 72.972     |   0.0 |  7.32
Comm    | 4.6286     | 4.6286     | 4.6286     |   0.0 |  0.46
Output  | 0.000282   | 0.000282   | 0.000282   |   0.0 |  0.00
Modify  | 27.635     | 27.635     | 27.635     |   0.0 |  2.77
Other   |            | 4.174      |            |       |  0.42

Nlocal:          10976 ave       10976 max       10976 min
Histogram: 1 0 0 0 0 0 0 0 0 0
Nghost:           7138 ave        7138 max        7138 min
Histogram: 1 0 0 0 0 0 0 0 0 0
Neighs:         268395 ave      268395 max      268395 min
Histogram: 1 0 0 0 0 0 0 0 0 0

Total # of neighbors = 268395
Ave neighs/atom = 24.452897
Neighbor list builds = 8136
Dangerous builds = 0ununfix		2

#Se colecta estadistica
print	  	"Stats collecting starts"
Stats collecting starts
fix		3 all npt temp ${newtemp2} ${newtemp2} 0.1 iso 0.0 0.0 1.0
fix		3 all npt temp 900 ${newtemp2} 0.1 iso 0.0 0.0 1.0
fix		3 all npt temp 900 900 0.1 iso 0.0 0.0 1.0
dump            3 all custom ${ndump} dump.${newtemp2} id type x y z c_peratom fx fy fz
dump            3 all custom 5000 dump.${newtemp2} id type x y z c_peratom fx fy fz
dump            3 all custom 5000 dump.900 id type x y z c_peratom fx fy fz
dump_modify   	3 element Au
run		${nstat}
run		100000
Per MPI rank memory allocation (min/avg/max) = 11.87 | 11.87 | 11.87 Mbytes
   Step          Temp          PotEng    
    700000   902.53939     -41514.166    
    710000   906.19869     -41541.962    
    720000   908.81765     -41531.315    
    730000   891.37386     -41525.315    
    740000   899.129       -41527.906    
    750000   888.69316     -41525.094    
    760000   897.72037     -41525.838    
    770000   910.33364     -41531.871    
    780000   892.65571     -41532.641    
    790000   895.90818     -41531.843    
    800000   894.81515     -41522.758    
Loop time of 997.147 on 1 procs for 100000 steps with 10976 atoms

Performance: 8.665 ns/day, 2.770 hours/ns, 100.286 timesteps/s, 1.101 Matom-step/s
86.4% CPU use with 1 MPI tasks x 1 OpenMP threads

MPI task timing breakdown:
Section |  min time  |  avg time  |  max time  |%varavg| %total
---------------------------------------------------------------
Pair    | 884.49     | 884.49     | 884.49     |   0.0 | 88.70
Neigh   | 72.525     | 72.525     | 72.525     |   0.0 |  7.27
Comm    | 4.5997     | 4.5997     | 4.5997     |   0.0 |  0.46
Output  | 0.66102    | 0.66102    | 0.66102    |   0.0 |  0.07
Modify  | 30.704     | 30.704     | 30.704     |   0.0 |  3.08
Other   |            | 4.167      |            |       |  0.42

Nlocal:          10976 ave       10976 max       10976 min
Histogram: 1 0 0 0 0 0 0 0 0 0
Nghost:           7100 ave        7100 max        7100 min
Histogram: 1 0 0 0 0 0 0 0 0 0
Neighs:         268208 ave      268208 max      268208 min
Histogram: 1 0 0 0 0 0 0 0 0 0

Total # of neighbors = 268208
Ave neighs/atom = 24.43586
Neighbor list builds = 8109
Dangerous builds = 0ununfix		3
undump		3

#if "${newtemp2} > ${tempa}" then "jump SELF break"
next a
jump SELF loop
variable	a loop ${n1}
variable	a loop 5
variable	newtemp1 equal (v_a-1)*50+v_temp1
variable	newtemp2 equal v_newtemp1+50

#Rampa de T
print	  	"Temperature ramp starts"
Temperature ramp starts
fix             1 all npt temp ${newtemp1} ${newtemp2} 0.1 iso 0.0 0.0 1.0
fix             1 all npt temp 900 ${newtemp2} 0.1 iso 0.0 0.0 1.0
fix             1 all npt temp 900 950 0.1 iso 0.0 0.0 1.0
run		${nramp}
run		200000
Per MPI rank memory allocation (min/avg/max) = 9.617 | 9.617 | 9.617 Mbytes
   Step          Temp          PotEng    
    800000   894.81515     -41522.758    
    810000   903.54126     -41546.904    
    820000   906.73262     -41513.606    
    830000   906.99719     -41515.967    
    840000   914.65064     -41530.345    
    850000   922.81554     -41496.499    
    860000   916.61891     -41499.04     
    870000   913.14087     -41508.482    
    880000   919.84203     -41488.141    
    890000   916.96683     -41477.75     
    900000   933.74185     -41479.853    
    910000   932.2709      -41490.574    
    920000   920.6134      -41485.473    
    930000   929.90318     -41496.691    
    940000   932.53953     -41473.408    
    950000   937.42002     -41467.233    
    960000   935.65575     -41466.227    
    970000   951.07982     -41474.886    
    980000   943.2885      -41425.699    
    990000   952.17907     -41458.137    
   1000000   953.69817     -41427.991    
Loop time of 2510.9 on 1 procs for 200000 steps with 10976 atoms

Performance: 6.882 ns/day, 3.487 hours/ns, 79.653 timesteps/s, 874.268 katom-step/s
58.4% CPU use with 1 MPI tasks x 1 OpenMP threads

MPI task timing breakdown:
Section |  min time  |  avg time  |  max time  |%varavg| %total
---------------------------------------------------------------
Pair    | 2224.8     | 2224.8     | 2224.8     |   0.0 | 88.60
Neigh   | 176.65     | 176.65     | 176.65     |   0.0 |  7.04
Comm    | 14.308     | 14.308     | 14.308     |   0.0 |  0.57
Output  | 0.000953   | 0.000953   | 0.000953   |   0.0 |  0.00
Modify  | 83.033     | 83.033     | 83.033     |   0.0 |  3.31
Other   |            | 12.15      |            |       |  0.48

Nlocal:          10976 ave       10976 max       10976 min
Histogram: 1 0 0 0 0 0 0 0 0 0
Nghost:           7127 ave        7127 max        7127 min
Histogram: 1 0 0 0 0 0 0 0 0 0
Neighs:         267935 ave      267935 max      267935 min
Histogram: 1 0 0 0 0 0 0 0 0 0

Total # of neighbors = 267935
Ave neighs/atom = 24.410988
Neighbor list builds = 16489
Dangerous builds = 0ununfix		1

#Equilibrio a nueva T
print	  	"Equilibration starts"
Equilibration starts
fix		2 all npt temp ${newtemp2} ${newtemp2} 0.1 iso 0.0 0.0 1.0
fix		2 all npt temp 950 ${newtemp2} 0.1 iso 0.0 0.0 1.0
fix		2 all npt temp 950 950 0.1 iso 0.0 0.0 1.0
run 		${nequil}
run 		100000
Per MPI rank memory allocation (min/avg/max) = 9.617 | 9.617 | 9.617 Mbytes
   Step          Temp          PotEng    
   1000000   953.69817     -41427.991    
   1010000   951.00028     -41419.293    
   1020000   931.74005     -41428.474    
   1030000   947.57257     -41464.843    
   1040000   949.81362     -41440.384    
   1050000   953.19158     -41465.627    
   1060000   959.29373     -41432.631    
   1070000   956.65136     -41451.658    
   1080000   955.99052     -41460.625    
   1090000   948.08151     -41451.871    
   1100000   951.44327     -41443.203    
Loop time of 1667.09 on 1 procs for 100000 steps with 10976 atoms

Performance: 5.183 ns/day, 4.631 hours/ns, 59.985 timesteps/s, 658.395 katom-step/s
31.2% CPU use with 1 MPI tasks x 1 OpenMP threads

MPI task timing breakdown:
Section |  min time  |  avg time  |  max time  |%varavg| %total
---------------------------------------------------------------
Pair    | 1469.5     | 1469.5     | 1469.5     |   0.0 | 88.15
Neigh   | 110.61     | 110.61     | 110.61     |   0.0 |  6.64
Comm    | 12.215     | 12.215     | 12.215     |   0.0 |  0.73
Output  | 0.000712   | 0.000712   | 0.000712   |   0.0 |  0.00
Modify  | 65.042     | 65.042     | 65.042     |   0.0 |  3.90
Other   |            | 9.76       |            |       |  0.59

Nlocal:          10976 ave       10976 max       10976 min
Histogram: 1 0 0 0 0 0 0 0 0 0
Nghost:           7151 ave        7151 max        7151 min
Histogram: 1 0 0 0 0 0 0 0 0 0
Neighs:         267987 ave      267987 max      267987 min
Histogram: 1 0 0 0 0 0 0 0 0 0

Total # of neighbors = 267987
Ave neighs/atom = 24.415725
Neighbor list builds = 8354
Dangerous builds = 0ununfix		2

#Se colecta estadistica
print	  	"Stats collecting starts"
Stats collecting starts
fix		3 all npt temp ${newtemp2} ${newtemp2} 0.1 iso 0.0 0.0 1.0
fix		3 all npt temp 950 ${newtemp2} 0.1 iso 0.0 0.0 1.0
fix		3 all npt temp 950 950 0.1 iso 0.0 0.0 1.0
dump            3 all custom ${ndump} dump.${newtemp2} id type x y z c_peratom fx fy fz
dump            3 all custom 5000 dump.${newtemp2} id type x y z c_peratom fx fy fz
dump            3 all custom 5000 dump.950 id type x y z c_peratom fx fy fz
dump_modify   	3 element Au
run		${nstat}
run		100000
Per MPI rank memory allocation (min/avg/max) = 11.87 | 11.87 | 11.87 Mbytes
   Step          Temp          PotEng    
   1100000   951.44327     -41443.203    
   1110000   948.92483     -41425.045    
   1120000   932.06155     -41448.674    
   1130000   939.78599     -41449.169    
   1140000   956.83882     -41450.555    
   1150000   945.00523     -41463.352    
   1160000   947.61673     -41445.595    
   1170000   948.27554     -41440.941    
   1180000   965.66124     -41435.053    
   1190000   942.50998     -41458.046    
   1200000   950.16548     -41426.68     
Loop time of 1665.69 on 1 procs for 100000 steps with 10976 atoms

Performance: 5.187 ns/day, 4.627 hours/ns, 60.035 timesteps/s, 658.946 katom-step/s
31.0% CPU use with 1 MPI tasks x 1 OpenMP threads

MPI task timing breakdown:
Section |  min time  |  avg time  |  max time  |%varavg| %total
---------------------------------------------------------------
Pair    | 1463.7     | 1463.7     | 1463.7     |   0.0 | 87.88
Neigh   | 109.81     | 109.81     | 109.81     |   0.0 |  6.59
Comm    | 12.262     | 12.262     | 12.262     |   0.0 |  0.74
Output  | 0.99455    | 0.99455    | 0.99455    |   0.0 |  0.06
Modify  | 69.028     | 69.028     | 69.028     |   0.0 |  4.14
Other   |            | 9.846      |            |       |  0.59

Nlocal:          10976 ave       10976 max       10976 min
Histogram: 1 0 0 0 0 0 0 0 0 0
Nghost:           7140 ave        7140 max        7140 min
Histogram: 1 0 0 0 0 0 0 0 0 0
Neighs:         267785 ave      267785 max      267785 min
Histogram: 1 0 0 0 0 0 0 0 0 0

Total # of neighbors = 267785
Ave neighs/atom = 24.397321
Neighbor list builds = 8353
Dangerous builds = 0ununfix		3
undump		3

#if "${newtemp2} > ${tempa}" then "jump SELF break"
next a
jump SELF loop
variable	a loop ${n1}
variable	a loop 5
variable	newtemp1 equal (v_a-1)*50+v_temp1
variable	newtemp2 equal v_newtemp1+50

#Rampa de T
print	  	"Temperature ramp starts"
Temperature ramp starts
fix             1 all npt temp ${newtemp1} ${newtemp2} 0.1 iso 0.0 0.0 1.0
fix             1 all npt temp 950 ${newtemp2} 0.1 iso 0.0 0.0 1.0
fix             1 all npt temp 950 1000 0.1 iso 0.0 0.0 1.0
run		${nramp}
run		200000
Per MPI rank memory allocation (min/avg/max) = 9.617 | 9.617 | 9.617 Mbytes
   Step          Temp          PotEng    
   1200000   950.16548     -41426.68     
   1210000   962.95141     -41433.434    
   1220000   950.58328     -41432.026    
   1230000   956.3175      -41449.999    
   1240000   955.1919      -41447.043    
   1250000   958.48549     -41422.128    
   1260000   954.07879     -41419.615    
   1270000   977.03373     -41404.638    
   1280000   974.03371     -41398.053    
   1290000   966.01644     -41392.359    
   1300000   981.91149     -41408.564    
   1310000   970.71296     -41394        
   1320000   988.54601     -41374.141    
   1330000   992.58194     -41392.762    
   1340000   983.3224      -41389.086    
   1350000   973.14134     -41380.793    
   1360000   995.75327     -41373.607    
   1370000   995.6524      -41353.497    
   1380000   993.08852     -41390.298    
   1390000   987.43419     -41372.156    
   1400000   1004.3814     -41363.737    
Loop time of 3515.79 on 1 procs for 200000 steps with 10976 atoms

Performance: 4.915 ns/day, 4.883 hours/ns, 56.886 timesteps/s, 624.383 katom-step/s
28.1% CPU use with 1 MPI tasks x 1 OpenMP threads

MPI task timing breakdown:
Section |  min time  |  avg time  |  max time  |%varavg| %total
---------------------------------------------------------------
Pair    | 3086.1     | 3086.1     | 3086.1     |   0.0 | 87.78
Neigh   | 230.59     | 230.59     | 230.59     |   0.0 |  6.56
Comm    | 28.753     | 28.753     | 28.753     |   0.0 |  0.82
Output  | 0.001233   | 0.001233   | 0.001233   |   0.0 |  0.00
Modify  | 147.13     | 147.13     | 147.13     |   0.0 |  4.18
Other   |            | 23.25      |            |       |  0.66

Nlocal:          10976 ave       10976 max       10976 min
Histogram: 1 0 0 0 0 0 0 0 0 0
Nghost:           7149 ave        7149 max        7149 min
Histogram: 1 0 0 0 0 0 0 0 0 0
Neighs:         267167 ave      267167 max      267167 min
Histogram: 1 0 0 0 0 0 0 0 0 0

Total # of neighbors = 267167
Ave neighs/atom = 24.341017
Neighbor list builds = 16921
Dangerous builds = 0ununfix		1

#Equilibrio a nueva T
print	  	"Equilibration starts"
Equilibration starts
fix		2 all npt temp ${newtemp2} ${newtemp2} 0.1 iso 0.0 0.0 1.0
fix		2 all npt temp 1000 ${newtemp2} 0.1 iso 0.0 0.0 1.0
fix		2 all npt temp 1000 1000 0.1 iso 0.0 0.0 1.0
run 		${nequil}
run 		100000
Per MPI rank memory allocation (min/avg/max) = 9.617 | 9.617 | 9.617 Mbytes
   Step          Temp          PotEng    
   1400000   1004.3814     -41363.737    
   1410000   1001.9313     -41358.046    
   1420000   1003.8849     -41346.209    
   1430000   994.45987     -41335.113    
   1440000   989.27625     -41340.052    
   1450000   1005.6086     -41372.899    
   1460000   1010.1565     -41351.929    
   1470000   991.42501     -41372.176    
   1480000   990.52474     -41367.58     
   1490000   1001.3815     -41336.357    
   1500000   1002.7251     -41363.797    
Loop time of 1777.58 on 1 procs for 100000 steps with 10976 atoms

Performance: 4.861 ns/day, 4.938 hours/ns, 56.256 timesteps/s, 617.469 katom-step/s
27.5% CPU use with 1 MPI tasks x 1 OpenMP threads

MPI task timing breakdown:
Section |  min time  |  avg time  |  max time  |%varavg| %total
---------------------------------------------------------------
Pair    | 1559.8     | 1559.8     | 1559.8     |   0.0 | 87.75
Neigh   | 117.87     | 117.87     | 117.87     |   0.0 |  6.63
Comm    | 14.436     | 14.436     | 14.436     |   0.0 |  0.81
Output  | 0.000722   | 0.000722   | 0.000722   |   0.0 |  0.00
Modify  | 73.394     | 73.394     | 73.394     |   0.0 |  4.13
Other   |            | 12.08      |            |       |  0.68

Nlocal:          10976 ave       10976 max       10976 min
Histogram: 1 0 0 0 0 0 0 0 0 0
Nghost:           7129 ave        7129 max        7129 min
Histogram: 1 0 0 0 0 0 0 0 0 0
Neighs:         267156 ave      267156 max      267156 min
Histogram: 1 0 0 0 0 0 0 0 0 0

Total # of neighbors = 267156
Ave neighs/atom = 24.340015
Neighbor list builds = 8562
Dangerous builds = 0ununfix		2

#Se colecta estadistica
print	  	"Stats collecting starts"
Stats collecting starts
fix		3 all npt temp ${newtemp2} ${newtemp2} 0.1 iso 0.0 0.0 1.0
fix		3 all npt temp 1000 ${newtemp2} 0.1 iso 0.0 0.0 1.0
fix		3 all npt temp 1000 1000 0.1 iso 0.0 0.0 1.0
dump            3 all custom ${ndump} dump.${newtemp2} id type x y z c_peratom fx fy fz
dump            3 all custom 5000 dump.${newtemp2} id type x y z c_peratom fx fy fz
dump            3 all custom 5000 dump.1000 id type x y z c_peratom fx fy fz
dump_modify   	3 element Au
run		${nstat}
run		100000
Per MPI rank memory allocation (min/avg/max) = 11.87 | 11.87 | 11.87 Mbytes
   Step          Temp          PotEng    
   1500000   1002.7251     -41363.797    
   1510000   1003.5606     -41343.364    
   1520000   1007.153      -41344.363    
   1530000   1002.7745     -41354.227    
   1540000   999.13215     -41358.883    
   1550000   1005.1953     -41375.269    
   1560000   991.56027     -41360.417    
   1570000   1011.6728     -41352.059    
   1580000   995.87874     -41359.618    
   1590000   1015.1372     -41340.938    
   1600000   989.2079      -41335.388    
Loop time of 1743.07 on 1 procs for 100000 steps with 10976 atoms

Performance: 4.957 ns/day, 4.842 hours/ns, 57.370 timesteps/s, 629.695 katom-step/s
23.9% CPU use with 1 MPI tasks x 1 OpenMP threads

MPI task timing breakdown:
Section |  min time  |  avg time  |  max time  |%varavg| %total
---------------------------------------------------------------
Pair    | 1524.7     | 1524.7     | 1524.7     |   0.0 | 87.47
Neigh   | 115.28     | 115.28     | 115.28     |   0.0 |  6.61
Comm    | 14.071     | 14.071     | 14.071     |   0.0 |  0.81
Output  | 0.98724    | 0.98724    | 0.98724    |   0.0 |  0.06
Modify  | 76.972     | 76.972     | 76.972     |   0.0 |  4.42
Other   |            | 11.02      |            |       |  0.63

Nlocal:          10976 ave       10976 max       10976 min
Histogram: 1 0 0 0 0 0 0 0 0 0
Nghost:           7157 ave        7157 max        7157 min
Histogram: 1 0 0 0 0 0 0 0 0 0
Neighs:         267576 ave      267576 max      267576 min
Histogram: 1 0 0 0 0 0 0 0 0 0

Total # of neighbors = 267576
Ave neighs/atom = 24.37828
Neighbor list builds = 8580
Dangerous builds = 0unfix		3
undump		3

#if "${newtemp2} > ${tempa}" then "jump SELF break"
next a
jump SELF loop
variable	a loop ${n1}
variable	a loop 5
variable	newtemp1 equal (v_a-1)*50+v_temp1
variable	newtemp2 equal v_newtemp1+50

#Rampa de T
print	  	"Temperature ramp starts"
Temperature ramp starts
fix             1 all npt temp ${newtemp1} ${newtemp2} 0.1 iso 0.0 0.0 1.0
fix             1 all npt temp 1000 ${newtemp2} 0.1 iso 0.0 0.0 1.0
fix             1 all npt temp 1000 1050 0.1 iso 0.0 0.0 1.0
run		${nramp}
run		200000
Per MPI rank memory allocation (min/avg/max) = 9.617 | 9.617 | 9.617 Mbytes
   Step          Temp          PotEng    
   1600000   989.2079      -41335.388    
   1610000   1010.1974     -41342.791    
   1620000   1012.5794     -41341.606    
   1630000   998.88425     -41339.903    
   1640000   1021.5481     -41348.693    
   1650000   1015.3358     -41306.982    
   1660000   1002.5355     -41346.137    
   1670000   1026.3414     -41319.919    
   1680000   1028.8433     -41322.794    
   1690000   1026.448      -41301.488    
   1700000   1037.5521     -41323.468    
   1710000   1030.4009     -41308.706    
   1720000   1035.7731     -41306.545    
   1730000   1039.7358     -41310.336    
   1740000   1033.4466     -41286.007    
   1750000   1030.823      -41301.898    
   1760000   1038.4847     -41274.382    
   1770000   1045.82       -41282.159    
   1780000   1048.3718     -41270.437    
   1790000   1036.0714     -41292.542    
   1800000   1057.6448     -41283.552    
Loop time of 2028.16 on 1 procs for 200000 steps with 10976 atoms

Performance: 8.520 ns/day, 2.817 hours/ns, 98.612 timesteps/s, 1.082 Matom-step/s
81.5% CPU use with 1 MPI tasks x 1 OpenMP threads

MPI task timing breakdown:
Section |  min time  |  avg time  |  max time  |%varavg| %total
---------------------------------------------------------------
Pair    | 1793.6     | 1793.6     | 1793.6     |   0.0 | 88.43
Neigh   | 158.63     | 158.63     | 158.63     |   0.0 |  7.82
Comm    | 9.6498     | 9.6498     | 9.6498     |   0.0 |  0.48
Output  | 0.000594   | 0.000594   | 0.000594   |   0.0 |  0.00
Modify  | 57.622     | 57.622     | 57.622     |   0.0 |  2.84
Other   |            | 8.666      |            |       |  0.43

Nlocal:          10976 ave       10976 max       10976 min
Histogram: 1 0 0 0 0 0 0 0 0 0
Nghost:           7141 ave        7141 max        7141 min
Histogram: 1 0 0 0 0 0 0 0 0 0
Neighs:         267023 ave      267023 max      267023 min
Histogram: 1 0 0 0 0 0 0 0 0 0

Total # of neighbors = 267023
Ave neighs/atom = 24.327897
Neighbor list builds = 17285
Dangerous builds = 0
unfix		1

#Equilibrio a nueva T
print	  	"Equilibration starts"
Equilibration starts
fix		2 all npt temp ${newtemp2} ${newtemp2} 0.1 iso 0.0 0.0 1.0
fix		2 all npt temp 1050 ${newtemp2} 0.1 iso 0.0 0.0 1.0
fix		2 all npt temp 1050 1050 0.1 iso 0.0 0.0 1.0
run 		${nequil}
run 		100000
Per MPI rank memory allocation (min/avg/max) = 9.617 | 9.617 | 9.617 Mbytes
   Step          Temp          PotEng    
   1800000   1057.6448     -41283.552    
   1810000   1051.7839     -41289.297    
   1820000   1047.3322     -41259.217    
   1830000   1057.5623     -41275.921    
   1840000   1058.3648     -41272.62     
   1850000   1045.5775     -41269.578    
   1860000   1042.0679     -41288.194    
   1870000   1064.0369     -41254.1      
   1880000   1054.761      -41243.054    
   1890000   1044.2831     -41292.348    
   1900000   1050.8464     -41257.981    
Loop time of 996.442 on 1 procs for 100000 steps with 10976 atoms

Performance: 8.671 ns/day, 2.768 hours/ns, 100.357 timesteps/s, 1.102 Matom-step/s
83.4% CPU use with 1 MPI tasks x 1 OpenMP threads

MPI task timing breakdown:
Section |  min time  |  avg time  |  max time  |%varavg| %total
---------------------------------------------------------------
Pair    | 880.43     | 880.43     | 880.43     |   0.0 | 88.36
Neigh   | 79.544     | 79.544     | 79.544     |   0.0 |  7.98
Comm    | 4.6738     | 4.6738     | 4.6738     |   0.0 |  0.47
Output  | 0.000299   | 0.000299   | 0.000299   |   0.0 |  0.00
Modify  | 27.589     | 27.589     | 27.589     |   0.0 |  2.77
Other   |            | 4.207      |            |       |  0.42

Nlocal:          10976 ave       10976 max       10976 min
Histogram: 1 0 0 0 0 0 0 0 0 0
Nghost:           7141 ave        7141 max        7141 min
Histogram: 1 0 0 0 0 0 0 0 0 0
Neighs:         266659 ave      266659 max      266659 min
Histogram: 1 0 0 0 0 0 0 0 0 0

Total # of neighbors = 266659
Ave neighs/atom = 24.294734
Neighbor list builds = 8745
Dangerous builds = 0
unfix		2

#Se colecta estadistica
print	  	"Stats collecting starts"
Stats collecting starts
fix		3 all npt temp ${newtemp2} ${newtemp2} 0.1 iso 0.0 0.0 1.0
fix		3 all npt temp 1050 ${newtemp2} 0.1 iso 0.0 0.0 1.0
fix		3 all npt temp 1050 1050 0.1 iso 0.0 0.0 1.0
dump            3 all custom ${ndump} dump.${newtemp2} id type x y z c_peratom fx fy fz
dump            3 all custom 5000 dump.${newtemp2} id type x y z c_peratom fx fy fz
dump            3 all custom 5000 dump.1050 id type x y z c_peratom fx fy fz
dump_modify   	3 element Au
run		${nstat}
run		100000
Per MPI rank memory allocation (min/avg/max) = 11.87 | 11.87 | 11.87 Mbytes
   Step          Temp          PotEng    
   1900000   1050.8464     -41257.981    
   1910000   1039.9752     -41258.181    
   1920000   1061.6975     -41277.124    
   1930000   1048.8093     -41260.204    
   1940000   1054.7232     -41261.563    
   1950000   1055.3172     -41260.126    
   1960000   1037.0811     -41255.867    
   1970000   1049.7634     -41281.282    
   1980000   1061.7155     -41247.056    
   1990000   1042.5672     -41272.606    
   2000000   1043.524      -41276.57     
Loop time of 1001.52 on 1 procs for 100000 steps with 10976 atoms

Performance: 8.627 ns/day, 2.782 hours/ns, 99.848 timesteps/s, 1.096 Matom-step/s
83.9% CPU use with 1 MPI tasks x 1 OpenMP threads

MPI task timing breakdown:
Section |  min time  |  avg time  |  max time  |%varavg| %total
---------------------------------------------------------------
Pair    | 881.66     | 881.66     | 881.66     |   0.0 | 88.03
Neigh   | 79.5       | 79.5       | 79.5       |   0.0 |  7.94
Comm    | 4.6796     | 4.6796     | 4.6796     |   0.0 |  0.47
Output  | 0.65491    | 0.65491    | 0.65491    |   0.0 |  0.07
Modify  | 30.797     | 30.797     | 30.797     |   0.0 |  3.08
Other   |            | 4.228      |            |       |  0.42

Nlocal:          10976 ave       10976 max       10976 min
Histogram: 1 0 0 0 0 0 0 0 0 0
Nghost:           7181 ave        7181 max        7181 min
Histogram: 1 0 0 0 0 0 0 0 0 0
Neighs:         267003 ave      267003 max      267003 min
Histogram: 1 0 0 0 0 0 0 0 0 0

Total # of neighbors = 267003
Ave neighs/atom = 24.326075
Neighbor list builds = 8743
Dangerous builds = 0
unfix		3
undump		3

#if "${newtemp2} > ${tempa}" then "jump SELF break"
next a
jump SELF loop

#label break
print	  	"Heating continues, close to melting"
Heating continues, close to melting
label		loop2
variable	b loop ${n2}
variable	b loop 2
variable	newtemp1 equal (v_b-1)*50+v_tempa
variable	newtemp2 equal v_newtemp1+50

#Rampa de T
print	  	"Temperature ramp starts"
Temperature ramp starts
fix             1 all npt temp ${newtemp1} ${newtemp2} 0.1 iso 0.0 0.0 1.0
fix             1 all npt temp 1050 ${newtemp2} 0.1 iso 0.0 0.0 1.0
fix             1 all npt temp 1050 1100 0.1 iso 0.0 0.0 1.0
run		${nramp}
run		200000
Per MPI rank memory allocation (min/avg/max) = 9.617 | 9.617 | 9.617 Mbytes
   Step          Temp          PotEng    
   2000000   1043.524      -41276.57     
   2010000   1059.2596     -41280.701    
   2020000   1054.8476     -41249.705    
   2030000   1069.6364     -41253.567    
   2040000   1050.9833     -41232.769    
   2050000   1064.4676     -41231.104    
   2060000   1060.6422     -41234.14     
   2070000   1069.178      -41245.589    
   2080000   1064.8423     -41213.346    
   2090000   1062.2364     -41211.542    
   2100000   1069.4827     -41226.362    
   2110000   1078.9665     -41204.521    
   2120000   1070.6926     -41215.491    
   2130000   1088.9368     -41206.462    
   2140000   1081.0568     -41206.197    
   2150000   1085.6381     -41190.922    
   2160000   1097.5173     -41179.889    
   2170000   1084.0338     -41164.81     
   2180000   1094.3701     -41203.325    
   2190000   1094.1587     -41188.75     
   2200000   1106.4205     -41182.237    
Loop time of 1987.35 on 1 procs for 200000 steps with 10976 atoms

Performance: 8.695 ns/day, 2.760 hours/ns, 100.637 timesteps/s, 1.105 Matom-step/s
84.0% CPU use with 1 MPI tasks x 1 OpenMP threads

MPI task timing breakdown:
Section |  min time  |  avg time  |  max time  |%varavg| %total
---------------------------------------------------------------
Pair    | 1753.5     | 1753.5     | 1753.5     |   0.0 | 88.23
Neigh   | 160.93     | 160.93     | 160.93     |   0.0 |  8.10
Comm    | 9.3879     | 9.3879     | 9.3879     |   0.0 |  0.47
Output  | 0.000591   | 0.000591   | 0.000591   |   0.0 |  0.00
Modify  | 55.144     | 55.144     | 55.144     |   0.0 |  2.77
Other   |            | 8.409      |            |       |  0.42

Nlocal:          10976 ave       10976 max       10976 min
Histogram: 1 0 0 0 0 0 0 0 0 0
Nghost:           7168 ave        7168 max        7168 min
Histogram: 1 0 0 0 0 0 0 0 0 0
Neighs:         266642 ave      266642 max      266642 min
Histogram: 1 0 0 0 0 0 0 0 0 0

Total # of neighbors = 266642
Ave neighs/atom = 24.293185
Neighbor list builds = 17694
Dangerous builds = 0
unfix		1

#Equilibrio a nueva T
print	  	"Equilibration starts"
Equilibration starts
fix		2 all npt temp ${newtemp2} ${newtemp2} 0.1 iso 0.0 0.0 1.0
fix		2 all npt temp 1100 ${newtemp2} 0.1 iso 0.0 0.0 1.0
fix		2 all npt temp 1100 1100 0.1 iso 0.0 0.0 1.0
run 		${nequil}
run 		100000
Per MPI rank memory allocation (min/avg/max) = 9.617 | 9.617 | 9.617 Mbytes
   Step          Temp          PotEng    
   2200000   1106.4205     -41182.237    
   2210000   1098.2331     -41173.029    
   2220000   1077.6489     -41186.074    
   2230000   1114.0674     -41186.956    
   2240000   1102.3054     -41178.559    
   2250000   1096.1203     -41189.398    
   2260000   1105.854      -41193.235    
   2270000   1098.1531     -41185.852    
   2280000   1090.3486     -41171.305    
   2290000   1108.4652     -41183.118    
   2300000   1100.3051     -41154.432    
Loop time of 995.59 on 1 procs for 100000 steps with 10976 atoms

Performance: 8.678 ns/day, 2.766 hours/ns, 100.443 timesteps/s, 1.102 Matom-step/s
83.7% CPU use with 1 MPI tasks x 1 OpenMP threads

MPI task timing breakdown:
Section |  min time  |  avg time  |  max time  |%varavg| %total
---------------------------------------------------------------
Pair    | 877.36     | 877.36     | 877.36     |   0.0 | 88.12
Neigh   | 81.741     | 81.741     | 81.741     |   0.0 |  8.21
Comm    | 4.7215     | 4.7215     | 4.7215     |   0.0 |  0.47
Output  | 0.00029    | 0.00029    | 0.00029    |   0.0 |  0.00
Modify  | 27.56      | 27.56      | 27.56      |   0.0 |  2.77
Other   |            | 4.207      |            |       |  0.42

Nlocal:          10976 ave       10976 max       10976 min
Histogram: 1 0 0 0 0 0 0 0 0 0
Nghost:           7188 ave        7188 max        7188 min
Histogram: 1 0 0 0 0 0 0 0 0 0
Neighs:         266438 ave      266438 max      266438 min
Histogram: 1 0 0 0 0 0 0 0 0 0

Total # of neighbors = 266438
Ave neighs/atom = 24.274599
Neighbor list builds = 8957
Dangerous builds = 0
unfix		2

#Se colecta estadistica
print	  	"Stats collecting starts"
Stats collecting starts
fix		3 all npt temp ${newtemp2} ${newtemp2} 0.1 iso 0.0 0.0 1.0
fix		3 all npt temp 1100 ${newtemp2} 0.1 iso 0.0 0.0 1.0
fix		3 all npt temp 1100 1100 0.1 iso 0.0 0.0 1.0
dump            3 all custom ${ndump} dump.${newtemp2} id type x y z c_peratom fx fy fz
dump            3 all custom 5000 dump.${newtemp2} id type x y z c_peratom fx fy fz
dump            3 all custom 5000 dump.1100 id type x y z c_peratom fx fy fz
dump_modify   	3 element Au

#neigh_modify    once yes
run		${nstat}
run		100000
Per MPI rank memory allocation (min/avg/max) = 11.87 | 11.87 | 11.87 Mbytes
   Step          Temp          PotEng    
   2300000   1100.3051     -41154.432    
   2310000   1100.4582     -41174.75     
   2320000   1090.512      -41166.942    
   2330000   1115.4512     -41207.623    
   2340000   1089.6527     -41193.008    
   2350000   1097.2679     -41184.137    
   2360000   1100.6195     -41171.922    
   2370000   1089.7453     -41171.311    
   2380000   1089.0423     -41163.13     
   2390000   1079.7843     -41178.135    
   2400000   1107.8593     -41169.756    
Loop time of 1008.32 on 1 procs for 100000 steps with 10976 atoms

Performance: 8.569 ns/day, 2.801 hours/ns, 99.175 timesteps/s, 1.089 Matom-step/s
82.2% CPU use with 1 MPI tasks x 1 OpenMP threads

MPI task timing breakdown:
Section |  min time  |  avg time  |  max time  |%varavg| %total
---------------------------------------------------------------
Pair    | 885.55     | 885.55     | 885.55     |   0.0 | 87.82
Neigh   | 82.14      | 82.14      | 82.14      |   0.0 |  8.15
Comm    | 4.7559     | 4.7559     | 4.7559     |   0.0 |  0.47
Output  | 0.65239    | 0.65239    | 0.65239    |   0.0 |  0.06
Modify  | 30.995     | 30.995     | 30.995     |   0.0 |  3.07
Other   |            | 4.234      |            |       |  0.42

Nlocal:          10976 ave       10976 max       10976 min
Histogram: 1 0 0 0 0 0 0 0 0 0
Nghost:           7184 ave        7184 max        7184 min
Histogram: 1 0 0 0 0 0 0 0 0 0
Neighs:         266364 ave      266364 max      266364 min
Histogram: 1 0 0 0 0 0 0 0 0 0

Total # of neighbors = 266364
Ave neighs/atom = 24.267857
Neighbor list builds = 8967
Dangerous builds = 0uunfix		3
undump		3

#if "${newtemp2} > ${tempb}" then "jump SELF break2"
next b
jump SELF loop2
variable	b loop ${n2}
variable	b loop 2
variable	newtemp1 equal (v_b-1)*50+v_tempa
variable	newtemp2 equal v_newtemp1+50

#Rampa de T
print	  	"Temperature ramp starts"
Temperature ramp starts
fix             1 all npt temp ${newtemp1} ${newtemp2} 0.1 iso 0.0 0.0 1.0
fix             1 all npt temp 1100 ${newtemp2} 0.1 iso 0.0 0.0 1.0
fix             1 all npt temp 1100 1150 0.1 iso 0.0 0.0 1.0
run		${nramp}
run		200000
Per MPI rank memory allocation (min/avg/max) = 9.617 | 9.617 | 9.617 Mbytes
   Step          Temp          PotEng    
   2400000   1107.8593     -41169.756    
   2410000   1110.7647     -41148.822    
   2420000   1108.2304     -41153.927    
   2430000   1078.4007     -41152.33     
   2440000   1111.4905     -41137.166    
   2450000   1111.3755     -41139.341    
   2460000   1114.4816     -41161.281    
   2470000   1105.5364     -41133.031    
   2480000   1129.5854     -41157.829    
   2490000   1116.9323     -41147.154    
   2500000   1137.9119     -41109.288    
   2510000   1128.856      -41119.847    
   2520000   1134.9095     -41103.647    
   2530000   1138.4524     -41111.13     
   2540000   1134.6695     -41085.248    
   2550000   1143.451      -41114.299    
   2560000   1144.2526     -41098.434    
   2570000   1146.8508     -41094.839    
   2580000   1134.4626     -41099.356    
   2590000   1148.6133     -41097.978    
   2600000   1141.7071     -41081.209    
Loop time of 1999.73 on 1 procs for 200000 steps with 10976 atoms

Performance: 8.641 ns/day, 2.777 hours/ns, 100.013 timesteps/s, 1.098 Matom-step/s
83.9% CPU use with 1 MPI tasks x 1 OpenMP threads

MPI task timing breakdown:
Section |  min time  |  avg time  |  max time  |%varavg| %total
---------------------------------------------------------------
Pair    | 1760.2     | 1760.2     | 1760.2     |   0.0 | 88.02
Neigh   | 166.29     | 166.29     | 166.29     |   0.0 |  8.32
Comm    | 9.484      | 9.484      | 9.484      |   0.0 |  0.47
Output  | 0.000581   | 0.000581   | 0.000581   |   0.0 |  0.00
Modify  | 55.276     | 55.276     | 55.276     |   0.0 |  2.76
Other   |            | 8.44       |            |       |  0.42

Nlocal:          10976 ave       10976 max       10976 min
Histogram: 1 0 0 0 0 0 0 0 0 0
Nghost:           7183 ave        7183 max        7183 min
Histogram: 1 0 0 0 0 0 0 0 0 0
Neighs:         265888 ave      265888 max      265888 min
Histogram: 1 0 0 0 0 0 0 0 0 0

Total # of neighbors = 265888
Ave neighs/atom = 24.22449
Neighbor list builds = 18139
Dangerous builds = 0uunfix		1

#Equilibrio a nueva T
print	  	"Equilibration starts"
Equilibration starts
fix		2 all npt temp ${newtemp2} ${newtemp2} 0.1 iso 0.0 0.0 1.0
fix		2 all npt temp 1150 ${newtemp2} 0.1 iso 0.0 0.0 1.0
fix		2 all npt temp 1150 1150 0.1 iso 0.0 0.0 1.0
run 		${nequil}
run 		100000
Per MPI rank memory allocation (min/avg/max) = 9.617 | 9.617 | 9.617 Mbytes
   Step          Temp          PotEng    
   2600000   1141.7071     -41081.209    
   2610000   1142.9481     -41078.994    
   2620000   1143.0873     -41102.568    
   2630000   1152.9933     -41101.283    
   2640000   1134.0297     -41079.861    
   2650000   1133.7525     -41068.317    
   2660000   1160.9832     -41083.636    
   2670000   1152.9424     -41081.577    
   2680000   1140.6018     -41094.534    
   2690000   1156.5878     -41068.755    
   2700000   1140.8162     -41064.74     
Loop time of 1002.03 on 1 procs for 100000 steps with 10976 atoms

Performance: 8.622 ns/day, 2.783 hours/ns, 99.797 timesteps/s, 1.095 Matom-step/s
83.6% CPU use with 1 MPI tasks x 1 OpenMP threads

MPI task timing breakdown:
Section |  min time  |  avg time  |  max time  |%varavg| %total
---------------------------------------------------------------
Pair    | 881.35     | 881.35     | 881.35     |   0.0 | 87.96
Neigh   | 83.997     | 83.997     | 83.997     |   0.0 |  8.38
Comm    | 4.7535     | 4.7535     | 4.7535     |   0.0 |  0.47
Output  | 0.000297   | 0.000297   | 0.000297   |   0.0 |  0.00
Modify  | 27.699     | 27.699     | 27.699     |   0.0 |  2.76
Other   |            | 4.231      |            |       |  0.42

Nlocal:          10976 ave       10976 max       10976 min
Histogram: 1 0 0 0 0 0 0 0 0 0
Nghost:           7216 ave        7216 max        7216 min
Histogram: 1 0 0 0 0 0 0 0 0 0
Neighs:         265804 ave      265804 max      265804 min
Histogram: 1 0 0 0 0 0 0 0 0 0

Total # of neighbors = 265804
Ave neighs/atom = 24.216837
Neighbor list builds = 9151
Dangerous builds = 0
unfix		2

#Se colecta estadistica
print	  	"Stats collecting starts"
Stats collecting starts
fix		3 all npt temp ${newtemp2} ${newtemp2} 0.1 iso 0.0 0.0 1.0
fix		3 all npt temp 1150 ${newtemp2} 0.1 iso 0.0 0.0 1.0
fix		3 all npt temp 1150 1150 0.1 iso 0.0 0.0 1.0
dump            3 all custom ${ndump} dump.${newtemp2} id type x y z c_peratom fx fy fz
dump            3 all custom 5000 dump.${newtemp2} id type x y z c_peratom fx fy fz
dump            3 all custom 5000 dump.1150 id type x y z c_peratom fx fy fz
dump_modify   	3 element Au

#neigh_modify    once yes
run		${nstat}
run		100000
Per MPI rank memory allocation (min/avg/max) = 11.87 | 11.87 | 11.87 Mbytes
   Step          Temp          PotEng    
   2700000   1140.8162     -41064.74     
   2710000   1149.7112     -41099.61     
   2720000   1150.6611     -41104.8      
   2730000   1143.5483     -41059.673    
   2740000   1151.6352     -41120.136    
   2750000   1142.2269     -41079.553    
   2760000   1154.7752     -41096.988    
   2770000   1157.0173     -41091.518    
   2780000   1154.7364     -41091.449    
   2790000   1142.5304     -41075.71     
   2800000   1150.5167     -41079.611    
Loop time of 999.981 on 1 procs for 100000 steps with 10976 atoms

Performance: 8.640 ns/day, 2.778 hours/ns, 100.002 timesteps/s, 1.098 Matom-step/s
85.0% CPU use with 1 MPI tasks x 1 OpenMP threads

MPI task timing breakdown:
Section |  min time  |  avg time  |  max time  |%varavg| %total
---------------------------------------------------------------
Pair    | 876.22     | 876.22     | 876.22     |   0.0 | 87.62
Neigh   | 83.564     | 83.564     | 83.564     |   0.0 |  8.36
Comm    | 4.7312     | 4.7312     | 4.7312     |   0.0 |  0.47
Output  | 0.64828    | 0.64828    | 0.64828    |   0.0 |  0.06
Modify  | 30.608     | 30.608     | 30.608     |   0.0 |  3.06
Other   |            | 4.208      |            |       |  0.42

Nlocal:          10976 ave       10976 max       10976 min
Histogram: 1 0 0 0 0 0 0 0 0 0
Nghost:           7224 ave        7224 max        7224 min
Histogram: 1 0 0 0 0 0 0 0 0 0
Neighs:         265956 ave      265956 max      265956 min
Histogram: 1 0 0 0 0 0 0 0 0 0

Total # of neighbors = 265956
Ave neighs/atom = 24.230685
Neighbor list builds = 9127
Dangerous builds = 0
unfix		3
undump		3

#if "${newtemp2} > ${tempb}" then "jump SELF break2"
next b
jump SELF loop2

#label break2
print	  	"Heating starts, high temperature"
Heating starts, high temperature
label		loop3
variable	c loop ${n3}
variable	c loop 19
variable	newtemp1 equal (v_c-1)*50+v_tempb
variable	newtemp2 equal v_newtemp1+50

#Rampa de T
print	  	"Temperature ramp starts"
Temperature ramp starts
fix             1 all npt temp ${newtemp1} ${newtemp2} 0.1 iso 0.0 0.0 1.0
fix             1 all npt temp 1150 ${newtemp2} 0.1 iso 0.0 0.0 1.0
fix             1 all npt temp 1150 1200 0.1 iso 0.0 0.0 1.0
run		${nramp}
run		200000
Per MPI rank memory allocation (min/avg/max) = 9.617 | 9.617 | 9.617 Mbytes
   Step          Temp          PotEng    
   2800000   1150.5167     -41079.611    
   2810000   1133.1625     -41074.328    
   2820000   1158.5502     -41080.481    
   2830000   1151.4994     -41060.778    
   2840000   1149.7749     -41064.901    
   2850000   1179.7215     -41037.21     
   2860000   1175.2509     -41072.11     
   2870000   1165.7968     -41050.99     
   2880000   1174.4479     -41052.948    
   2890000   1155.9593     -41025.09     
   2900000   1178.7361     -41040.128    
   2910000   1166.7793     -41043.17     
   2920000   1171.3625     -41050.285    
   2930000   1167.831      -41029.139    
   2940000   1189.5409     -41011.545    
   2950000   1192.9026     -41015.678    
   2960000   1176.5855     -41012.61     
   2970000   1181.8487     -41004.257    
   2980000   1199.7371     -41024.796    
   2990000   1195.8005     -40982.768    
   3000000   1205.4211     -40967.795    
Loop time of 1989.09 on 1 procs for 200000 steps with 10976 atoms

Performance: 8.687 ns/day, 2.763 hours/ns, 100.548 timesteps/s, 1.104 Matom-step/s
84.3% CPU use with 1 MPI tasks x 1 OpenMP threads

MPI task timing breakdown:
Section |  min time  |  avg time  |  max time  |%varavg| %total
---------------------------------------------------------------
Pair    | 1746.8     | 1746.8     | 1746.8     |   0.0 | 87.82
Neigh   | 169.38     | 169.38     | 169.38     |   0.0 |  8.52
Comm    | 9.5299     | 9.5299     | 9.5299     |   0.0 |  0.48
Output  | 0.000613   | 0.000613   | 0.000613   |   0.0 |  0.00
Modify  | 54.938     | 54.938     | 54.938     |   0.0 |  2.76
Other   |            | 8.435      |            |       |  0.42

Nlocal:          10976 ave       10976 max       10976 min
Histogram: 1 0 0 0 0 0 0 0 0 0
Nghost:           7203 ave        7203 max        7203 min
Histogram: 1 0 0 0 0 0 0 0 0 0
Neighs:         265571 ave      265571 max      265571 min
Histogram: 1 0 0 0 0 0 0 0 0 0

Total # of neighbors = 265571
Ave neighs/atom = 24.195609
Neighbor list builds = 18453
Dangerous builds = 0
unfix		1

#Equilibrio a nueva T
print	  	"Equilibration starts"
Equilibration starts
fix		2 all npt temp ${newtemp2} ${newtemp2} 0.1 iso 0.0 0.0 1.0
fix		2 all npt temp 1200 ${newtemp2} 0.1 iso 0.0 0.0 1.0
fix		2 all npt temp 1200 1200 0.1 iso 0.0 0.0 1.0
run 		${nequil}
run 		100000
Per MPI rank memory allocation (min/avg/max) = 9.617 | 9.617 | 9.617 Mbytes
   Step          Temp          PotEng    
   3000000   1205.4211     -40967.795    
   3010000   1198.3995     -40983.156    
   3020000   1203.133      -40996.041    
   3030000   1193.3304     -40992.054    
   3040000   1198.6368     -40990.36     
   3050000   1195.6802     -41006.358    
   3060000   1201.1165     -41012.461    
   3070000   1197.424      -40983.094    
   3080000   1190.7399     -40987.865    
   3090000   1198.9686     -41002.461    
   3100000   1210.7527     -40999.777    
Loop time of 995.675 on 1 procs for 100000 steps with 10976 atoms

Performance: 8.678 ns/day, 2.766 hours/ns, 100.434 timesteps/s, 1.102 Matom-step/s
84.2% CPU use with 1 MPI tasks x 1 OpenMP threads

MPI task timing breakdown:
Section |  min time  |  avg time  |  max time  |%varavg| %total
---------------------------------------------------------------
Pair    | 873.66     | 873.66     | 873.66     |   0.0 | 87.75
Neigh   | 85.547     | 85.547     | 85.547     |   0.0 |  8.59
Comm    | 4.7776     | 4.7776     | 4.7776     |   0.0 |  0.48
Output  | 0.000293   | 0.000293   | 0.000293   |   0.0 |  0.00
Modify  | 27.474     | 27.474     | 27.474     |   0.0 |  2.76
Other   |            | 4.217      |            |       |  0.42

Nlocal:          10976 ave       10976 max       10976 min
Histogram: 1 0 0 0 0 0 0 0 0 0
Nghost:           7196 ave        7196 max        7196 min
Histogram: 1 0 0 0 0 0 0 0 0 0
Neighs:         265621 ave      265621 max      265621 min
Histogram: 1 0 0 0 0 0 0 0 0 0

Total # of neighbors = 265621
Ave neighs/atom = 24.200164
Neighbor list builds = 9309
Dangerous builds = 0
unfix		2

#Se colecta estadistica
print	  	"Stats collecting starts"
Stats collecting starts
fix		3 all npt temp ${newtemp2} ${newtemp2} 0.1 iso 0.0 0.0 1.0
fix		3 all npt temp 1200 ${newtemp2} 0.1 iso 0.0 0.0 1.0
fix		3 all npt temp 1200 1200 0.1 iso 0.0 0.0 1.0
dump            3 all custom ${ndump} dump.${newtemp2} id type x y z c_peratom fx fy fz
dump            3 all custom 5000 dump.${newtemp2} id type x y z c_peratom fx fy fz
dump            3 all custom 5000 dump.1200 id type x y z c_peratom fx fy fz
dump_modify   	3 element Au

#neigh_modify    once yes
run		${nstat}
run		100000
Per MPI rank memory allocation (min/avg/max) = 11.87 | 11.87 | 11.87 Mbytes
   Step          Temp          PotEng    
   3100000   1210.7527     -40999.777    
   3110000   1191.7299     -40976.873    
   3120000   1205.1156     -40991.818    
   3130000   1200.2018     -40980.959    
   3140000   1198.0235     -40986.668    
   3150000   1187.2761     -40971.51     
   3160000   1211.8405     -40983.099    
   3170000   1185.4885     -40977.372    
   3180000   1195.1111     -40956.966    
   3190000   1210.7023     -41013.795    
   3200000   1198.7829     -41020.755    
Loop time of 998.514 on 1 procs for 100000 steps with 10976 atoms

Performance: 8.653 ns/day, 2.774 hours/ns, 100.149 timesteps/s, 1.099 Matom-step/s
85.1% CPU use with 1 MPI tasks x 1 OpenMP threads

MPI task timing breakdown:
Section |  min time  |  avg time  |  max time  |%varavg| %total
---------------------------------------------------------------
Pair    | 872.69     | 872.69     | 872.69     |   0.0 | 87.40
Neigh   | 85.702     | 85.702     | 85.702     |   0.0 |  8.58
Comm    | 4.7754     | 4.7754     | 4.7754     |   0.0 |  0.48
Output  | 0.65564    | 0.65564    | 0.65564    |   0.0 |  0.07
Modify  | 30.484     | 30.484     | 30.484     |   0.0 |  3.05
Other   |            | 4.21       |            |       |  0.42

Nlocal:          10976 ave       10976 max       10976 min
Histogram: 1 0 0 0 0 0 0 0 0 0
Nghost:           7170 ave        7170 max        7170 min
Histogram: 1 0 0 0 0 0 0 0 0 0
Neighs:         265572 ave      265572 max      265572 min
Histogram: 1 0 0 0 0 0 0 0 0 0

Total # of neighbors = 265572
Ave neighs/atom = 24.1957
Neighbor list builds = 9349
Dangerous builds = 0
unfix		3
undump		3

#if "${newtemp2} > ${temp2}" then "jump SELF break3"
next c
jump SELF loop3
variable	c loop ${n3}
variable	c loop 19
variable	newtemp1 equal (v_c-1)*50+v_tempb
variable	newtemp2 equal v_newtemp1+50

#Rampa de T
print	  	"Temperature ramp starts"
Temperature ramp starts
fix             1 all npt temp ${newtemp1} ${newtemp2} 0.1 iso 0.0 0.0 1.0
fix             1 all npt temp 1200 ${newtemp2} 0.1 iso 0.0 0.0 1.0
fix             1 all npt temp 1200 1250 0.1 iso 0.0 0.0 1.0
run		${nramp}
run		200000
Per MPI rank memory allocation (min/avg/max) = 9.617 | 9.617 | 9.617 Mbytes
   Step          Temp          PotEng    
   3200000   1198.7829     -41020.755    
   3210000   1193.1371     -40975.305    
   3220000   1212.2638     -40984.178    
   3230000   1208.0298     -40966.542    
   3240000   1208.4332     -40989.943    
   3250000   1208.199      -40983.563    
   3260000   1216.4569     -40989.154    
   3270000   1219.4437     -40960.597    
   3280000   1238.037      -40956.012    
   3290000   1228.0533     -40931.956    
   3300000   1236.2598     -40927.889    
   3310000   1220.7453     -40939.303    
   3320000   1238.4116     -40910.879    
   3330000   1245.5779     -40913.472    
   3340000   1243.8589     -40906.891    
   3350000   1236.2531     -40922.024    
   3360000   1241.7174     -40917.755    
   3370000   1252.3107     -40902.761    
   3380000   1236.7961     -40907.529    
   3390000   1240.5651     -40917.341    
   3400000   1254.9192     -40912.657    
Loop time of 1980.28 on 1 procs for 200000 steps with 10976 atoms

Performance: 8.726 ns/day, 2.750 hours/ns, 100.996 timesteps/s, 1.109 Matom-step/s
85.7% CPU use with 1 MPI tasks x 1 OpenMP threads

MPI task timing breakdown:
Section |  min time  |  avg time  |  max time  |%varavg| %total
---------------------------------------------------------------
Pair    | 1734.7     | 1734.7     | 1734.7     |   0.0 | 87.60
Neigh   | 173.05     | 173.05     | 173.05     |   0.0 |  8.74
Comm    | 9.5767     | 9.5767     | 9.5767     |   0.0 |  0.48
Output  | 0.000584   | 0.000584   | 0.000584   |   0.0 |  0.00
Modify  | 54.548     | 54.548     | 54.548     |   0.0 |  2.75
Other   |            | 8.407      |            |       |  0.42

Nlocal:          10976 ave       10976 max       10976 min
Histogram: 1 0 0 0 0 0 0 0 0 0
Nghost:           7235 ave        7235 max        7235 min
Histogram: 1 0 0 0 0 0 0 0 0 0
Neighs:         265111 ave      265111 max      265111 min
Histogram: 1 0 0 0 0 0 0 0 0 0

Total # of neighbors = 265111
Ave neighs/atom = 24.153699
Neighbor list builds = 18837
Dangerous builds = 0
unfix		1

#Equilibrio a nueva T
print	  	"Equilibration starts"
Equilibration starts
fix		2 all npt temp ${newtemp2} ${newtemp2} 0.1 iso 0.0 0.0 1.0
fix		2 all npt temp 1250 ${newtemp2} 0.1 iso 0.0 0.0 1.0
fix		2 all npt temp 1250 1250 0.1 iso 0.0 0.0 1.0
run 		${nequil}
run 		100000
Per MPI rank memory allocation (min/avg/max) = 9.617 | 9.617 | 9.617 Mbytes
   Step          Temp          PotEng    
   3400000   1254.9192     -40912.657    
   3410000   1241.496      -40876.48     
   3420000   1235.7338     -40915.62     
   3430000   1254.7627     -40887.747    
   3440000   1260.3931     -40900.465    
   3450000   1238.1559     -40902.623    
   3460000   1260.4229     -40919.557    
   3470000   1229.8684     -40910.209    
   3480000   1249.1933     -40907.714    
   3490000   1253.1696     -40875.185    
   3500000   1253.0467     -40890.463    
Loop time of 992.419 on 1 procs for 100000 steps with 10976 atoms

Performance: 8.706 ns/day, 2.757 hours/ns, 100.764 timesteps/s, 1.106 Matom-step/s
84.9% CPU use with 1 MPI tasks x 1 OpenMP threads

MPI task timing breakdown:
Section |  min time  |  avg time  |  max time  |%varavg| %total
---------------------------------------------------------------
Pair    | 868.51     | 868.51     | 868.51     |   0.0 | 87.51
Neigh   | 87.494     | 87.494     | 87.494     |   0.0 |  8.82
Comm    | 4.805      | 4.805      | 4.805      |   0.0 |  0.48
Output  | 0.000294   | 0.000294   | 0.000294   |   0.0 |  0.00
Modify  | 27.404     | 27.404     | 27.404     |   0.0 |  2.76
Other   |            | 4.208      |            |       |  0.42

Nlocal:          10976 ave       10976 max       10976 min
Histogram: 1 0 0 0 0 0 0 0 0 0
Nghost:           7181 ave        7181 max        7181 min
Histogram: 1 0 0 0 0 0 0 0 0 0
Neighs:         265003 ave      265003 max      265003 min
Histogram: 1 0 0 0 0 0 0 0 0 0

Total # of neighbors = 265003
Ave neighs/atom = 24.143859
Neighbor list builds = 9490
Dangerous builds = 0
unfix		2

#Se colecta estadistica
print	  	"Stats collecting starts"
Stats collecting starts
fix		3 all npt temp ${newtemp2} ${newtemp2} 0.1 iso 0.0 0.0 1.0
fix		3 all npt temp 1250 ${newtemp2} 0.1 iso 0.0 0.0 1.0
fix		3 all npt temp 1250 1250 0.1 iso 0.0 0.0 1.0
dump            3 all custom ${ndump} dump.${newtemp2} id type x y z c_peratom fx fy fz
dump            3 all custom 5000 dump.${newtemp2} id type x y z c_peratom fx fy fz
dump            3 all custom 5000 dump.1250 id type x y z c_peratom fx fy fz
dump_modify   	3 element Au

#neigh_modify    once yes
run		${nstat}
run		100000
Per MPI rank memory allocation (min/avg/max) = 11.87 | 11.87 | 11.87 Mbytes
   Step          Temp          PotEng    
   3500000   1253.0467     -40890.463    
   3510000   1258.5795     -40883.901    
   3520000   1241.3951     -40910.705    
   3530000   1245.6956     -40917.843    
   3540000   1248.9212     -40891.083    
   3550000   1258.7129     -40899.446    
   3560000   1242.6644     -40909.253    
   3570000   1256.3143     -40915.794    
   3580000   1260.2038     -40901.461    
   3590000   1246.2989     -40878.385    
   3600000   1247.5452     -40901.092    
Loop time of 1001.11 on 1 procs for 100000 steps with 10976 atoms

Performance: 8.630 ns/day, 2.781 hours/ns, 99.889 timesteps/s, 1.096 Matom-step/s
84.0% CPU use with 1 MPI tasks x 1 OpenMP threads

MPI task timing breakdown:
Section |  min time  |  avg time  |  max time  |%varavg| %total
---------------------------------------------------------------
Pair    | 872.92     | 872.92     | 872.92     |   0.0 | 87.20
Neigh   | 87.859     | 87.859     | 87.859     |   0.0 |  8.78
Comm    | 4.8197     | 4.8197     | 4.8197     |   0.0 |  0.48
Output  | 0.65001    | 0.65001    | 0.65001    |   0.0 |  0.06
Modify  | 30.647     | 30.647     | 30.647     |   0.0 |  3.06
Other   |            | 4.211      |            |       |  0.42

Nlocal:          10976 ave       10976 max       10976 min
Histogram: 1 0 0 0 0 0 0 0 0 0
Nghost:           7228 ave        7228 max        7228 min
Histogram: 1 0 0 0 0 0 0 0 0 0
Neighs:         265333 ave      265333 max      265333 min
Histogram: 1 0 0 0 0 0 0 0 0 0

Total # of neighbors = 265333
Ave neighs/atom = 24.173925
Neighbor list builds = 9517
Dangerous builds = 0
unfix		3
undump		3

#if "${newtemp2} > ${temp2}" then "jump SELF break3"
next c
jump SELF loop3
variable	c loop ${n3}
variable	c loop 19
variable	newtemp1 equal (v_c-1)*50+v_tempb
variable	newtemp2 equal v_newtemp1+50

#Rampa de T
print	  	"Temperature ramp starts"
Temperature ramp starts
fix             1 all npt temp ${newtemp1} ${newtemp2} 0.1 iso 0.0 0.0 1.0
fix             1 all npt temp 1250 ${newtemp2} 0.1 iso 0.0 0.0 1.0
fix             1 all npt temp 1250 1300 0.1 iso 0.0 0.0 1.0
run		${nramp}
run		200000
Per MPI rank memory allocation (min/avg/max) = 9.617 | 9.617 | 9.617 Mbytes
   Step          Temp          PotEng    
   3600000   1247.5452     -40901.092    
   3610000   1250.2012     -40917.283    
   3620000   1259.6533     -40903.931    
   3630000   1271.4345     -40872.162    
   3640000   1253.0761     -40870.443    
   3650000   1247.0571     -40869.94     
   3660000   1265.7274     -40872.187    
   3670000   1263.5136     -40866.841    
   3680000   1281.1356     -40837.755    
   3690000   1255.7477     -40844.785    
   3700000   1271.5481     -40854.247    
   3710000   1282.2856     -40810.92     
   3720000   1294.9788     -40857.792    
   3730000   1304.5893     -40792.925    
   3740000   1289.4095     -40829.642    
   3750000   1306.8605     -40841.114    
   3760000   1279.3185     -40837.478    
   3770000   1284.0768     -40800.514    
   3780000   1299.4217     -40818.895    
   3790000   1301.0993     -40786.626    
   3800000   1292.4874     -40797.313    
Loop time of 1999.72 on 1 procs for 200000 steps with 10976 atoms

Performance: 8.641 ns/day, 2.777 hours/ns, 100.014 timesteps/s, 1.098 Matom-step/s
83.8% CPU use with 1 MPI tasks x 1 OpenMP threads

MPI task timing breakdown:
Section |  min time  |  avg time  |  max time  |%varavg| %total
---------------------------------------------------------------
Pair    | 1749.5     | 1749.5     | 1749.5     |   0.0 | 87.49
Neigh   | 177.2      | 177.2      | 177.2      |   0.0 |  8.86
Comm    | 9.6791     | 9.6791     | 9.6791     |   0.0 |  0.48
Output  | 0.000582   | 0.000582   | 0.000582   |   0.0 |  0.00
Modify  | 54.952     | 54.952     | 54.952     |   0.0 |  2.75
Other   |            | 8.427      |            |       |  0.42

Nlocal:          10976 ave       10976 max       10976 min
Histogram: 1 0 0 0 0 0 0 0 0 0
Nghost:           7235 ave        7235 max        7235 min
Histogram: 1 0 0 0 0 0 0 0 0 0
Neighs:         264837 ave      264837 max      264837 min
Histogram: 1 0 0 0 0 0 0 0 0 0

Total # of neighbors = 264837
Ave neighs/atom = 24.128735
Neighbor list builds = 19181
Dangerous builds = 0
unfix		1

#Equilibrio a nueva T
print	  	"Equilibration starts"
Equilibration starts
fix		2 all npt temp ${newtemp2} ${newtemp2} 0.1 iso 0.0 0.0 1.0
fix		2 all npt temp 1300 ${newtemp2} 0.1 iso 0.0 0.0 1.0
fix		2 all npt temp 1300 1300 0.1 iso 0.0 0.0 1.0
run 		${nequil}
run 		100000
Per MPI rank memory allocation (min/avg/max) = 9.618 | 9.618 | 9.618 Mbytes
   Step          Temp          PotEng    
   3800000   1292.4874     -40797.313    
   3810000   1303.2854     -40789.654    
   3820000   1293.5345     -40803.985    
   3830000   1288.1624     -40799.637    
   3840000   1303.3287     -40788.631    
   3850000   1293.0914     -40761.586    
   3860000   1294.0755     -40808.505    
   3870000   1299.5705     -40798.507    
   3880000   1305.21       -40784.948    
   3890000   1276.8648     -40818.419    
   3900000   1308.8815     -40801.256    
Loop time of 994.936 on 1 procs for 100000 steps with 10976 atoms

Performance: 8.684 ns/day, 2.764 hours/ns, 100.509 timesteps/s, 1.103 Matom-step/s
84.4% CPU use with 1 MPI tasks x 1 OpenMP threads

MPI task timing breakdown:
Section |  min time  |  avg time  |  max time  |%varavg| %total
---------------------------------------------------------------
Pair    | 868.65     | 868.65     | 868.65     |   0.0 | 87.31
Neigh   | 89.711     | 89.711     | 89.711     |   0.0 |  9.02
Comm    | 4.8566     | 4.8566     | 4.8566     |   0.0 |  0.49
Output  | 0.000295   | 0.000295   | 0.000295   |   0.0 |  0.00
Modify  | 27.488     | 27.488     | 27.488     |   0.0 |  2.76
Other   |            | 4.232      |            |       |  0.43

Nlocal:          10976 ave       10976 max       10976 min
Histogram: 1 0 0 0 0 0 0 0 0 0
Nghost:           7228 ave        7228 max        7228 min
Histogram: 1 0 0 0 0 0 0 0 0 0
Neighs:         264379 ave      264379 max      264379 min
Histogram: 1 0 0 0 0 0 0 0 0 0

Total # of neighbors = 264379
Ave neighs/atom = 24.087008
Neighbor list builds = 9698
Dangerous builds = 0
unfix		2

#Se colecta estadistica
print	  	"Stats collecting starts"
Stats collecting starts
fix		3 all npt temp ${newtemp2} ${newtemp2} 0.1 iso 0.0 0.0 1.0
fix		3 all npt temp 1300 ${newtemp2} 0.1 iso 0.0 0.0 1.0
fix		3 all npt temp 1300 1300 0.1 iso 0.0 0.0 1.0
dump            3 all custom ${ndump} dump.${newtemp2} id type x y z c_peratom fx fy fz
dump            3 all custom 5000 dump.${newtemp2} id type x y z c_peratom fx fy fz
dump            3 all custom 5000 dump.1300 id type x y z c_peratom fx fy fz
dump_modify   	3 element Au

#neigh_modify    once yes
run		${nstat}
run		100000
Per MPI rank memory allocation (min/avg/max) = 11.87 | 11.87 | 11.87 Mbytes
   Step          Temp          PotEng    
   3900000   1308.8815     -40801.256    
   3910000   1299.9225     -40827.76     
   3920000   1298.8679     -40799.95     
   3930000   1294.968      -40777.733    
   3940000   1301.4671     -40775.863    
   3950000   1289.2463     -40810.218    
   3960000   1294.0494     -40791.611    
   3970000   1296.8959     -40802.434    
   3980000   1300.3238     -40828.802    
   3990000   1305.3039     -40788.491    
   4000000   1283.3286     -40810.163    
Loop time of 1003.98 on 1 procs for 100000 steps with 10976 atoms

Performance: 8.606 ns/day, 2.789 hours/ns, 99.604 timesteps/s, 1.093 Matom-step/s
83.8% CPU use with 1 MPI tasks x 1 OpenMP threads

MPI task timing breakdown:
Section |  min time  |  avg time  |  max time  |%varavg| %total
---------------------------------------------------------------
Pair    | 873.59     | 873.59     | 873.59     |   0.0 | 87.01
Neigh   | 89.944     | 89.944     | 89.944     |   0.0 |  8.96
Comm    | 4.8748     | 4.8748     | 4.8748     |   0.0 |  0.49
Output  | 0.65948    | 0.65948    | 0.65948    |   0.0 |  0.07
Modify  | 30.671     | 30.671     | 30.671     |   0.0 |  3.05
Other   |            | 4.235      |            |       |  0.42

Nlocal:          10976 ave       10976 max       10976 min
Histogram: 1 0 0 0 0 0 0 0 0 0
Nghost:           7243 ave        7243 max        7243 min
Histogram: 1 0 0 0 0 0 0 0 0 0
Neighs:         265392 ave      265392 max      265392 min
Histogram: 1 0 0 0 0 0 0 0 0 0

Total # of neighbors = 265392
Ave neighs/atom = 24.1793
Neighbor list builds = 9713
Dangerous builds = 0
unfix		3
undump		3

#if "${newtemp2} > ${temp2}" then "jump SELF break3"
next c
jump SELF loop3
variable	c loop ${n3}
variable	c loop 19
variable	newtemp1 equal (v_c-1)*50+v_tempb
variable	newtemp2 equal v_newtemp1+50

#Rampa de T
print	  	"Temperature ramp starts"
Temperature ramp starts
fix             1 all npt temp ${newtemp1} ${newtemp2} 0.1 iso 0.0 0.0 1.0
fix             1 all npt temp 1300 ${newtemp2} 0.1 iso 0.0 0.0 1.0
fix             1 all npt temp 1300 1350 0.1 iso 0.0 0.0 1.0
run		${nramp}
run		200000
Per MPI rank memory allocation (min/avg/max) = 9.618 | 9.618 | 9.618 Mbytes
   Step          Temp          PotEng    
   4000000   1283.3286     -40810.163    
   4010000   1313.215      -40794.312    
   4020000   1314.3451     -40787.422    
   4030000   1289.3292     -40802.362    
   4040000   1290.2196     -40754.477    
   4050000   1309.627      -40743.997    
   4060000   1292.0411     -40755.061    
   4070000   1311.0392     -40782.913    
   4080000   1314.6989     -40765.065    
   4090000   1313.1911     -40759.059    
   4100000   1314.3573     -40753.1      
   4110000   1323.1087     -40726.723    
   4120000   1328.0535     -40740.044    
   4130000   1320.5226     -40722.837    
   4140000   1356.2842     -40711.514    
   4150000   1324.4117     -40742.142    
   4160000   1329.6054     -40729.714    
   4170000   1343.8064     -40698.966    
   4180000   1351.6049     -40742.5      
   4190000   1352.2493     -40720.95     
   4200000   1359.4022     -40704.684    
Loop time of 1996.18 on 1 procs for 200000 steps with 10976 atoms

Performance: 8.657 ns/day, 2.772 hours/ns, 100.191 timesteps/s, 1.100 Matom-step/s
84.2% CPU use with 1 MPI tasks x 1 OpenMP threads

MPI task timing breakdown:
Section |  min time  |  avg time  |  max time  |%varavg| %total
---------------------------------------------------------------
Pair    | 1742       | 1742       | 1742       |   0.0 | 87.26
Neigh   | 181.02     | 181.02     | 181.02     |   0.0 |  9.07
Comm    | 9.7649     | 9.7649     | 9.7649     |   0.0 |  0.49
Output  | 0.000592   | 0.000592   | 0.000592   |   0.0 |  0.00
Modify  | 54.97      | 54.97      | 54.97      |   0.0 |  2.75
Other   |            | 8.471      |            |       |  0.42

Nlocal:          10976 ave       10976 max       10976 min
Histogram: 1 0 0 0 0 0 0 0 0 0
Nghost:           7274 ave        7274 max        7274 min
Histogram: 1 0 0 0 0 0 0 0 0 0
Neighs:         264140 ave      264140 max      264140 min
Histogram: 1 0 0 0 0 0 0 0 0 0

Total # of neighbors = 264140
Ave neighs/atom = 24.065233
Neighbor list builds = 19543
Dangerous builds = 0
unfix		1

#Equilibrio a nueva T
print	  	"Equilibration starts"
Equilibration starts
fix		2 all npt temp ${newtemp2} ${newtemp2} 0.1 iso 0.0 0.0 1.0
fix		2 all npt temp 1350 ${newtemp2} 0.1 iso 0.0 0.0 1.0
fix		2 all npt temp 1350 1350 0.1 iso 0.0 0.0 1.0
run 		${nequil}
run 		100000
Per MPI rank memory allocation (min/avg/max) = 9.618 | 9.618 | 9.618 Mbytes
   Step          Temp          PotEng    
   4200000   1359.4022     -40704.684    
   4210000   1354.5015     -40696.232    
   4220000   1356.1609     -40702.244    
   4230000   1384.3103     -40701.625    
   4240000   1340.4579     -40708.301    
   4250000   1339.8966     -40725.568    
   4260000   1349.9828     -40703.262    
   4270000   1332.6554     -40679.113    
   4280000   1351.1981     -40691.165    
   4290000   1351.3475     -40734.933    
[...]
Histogram: 1 0 0 0 0 0 0 0 0 0
Neighs:         247258 ave      247258 max      247258 min
Histogram: 1 0 0 0 0 0 0 0 0 0

Total # of neighbors = 247258
Ave neighs/atom = 22.52715
Neighbor list builds = 22981
Dangerous builds = 0
unfix		1

#Equilibrio a nueva T
print	  	"Equilibration starts"
Equilibration starts
fix		2 all npt temp ${newtemp2} ${newtemp2} 0.1 iso 0.0 0.0 1.0
fix		2 all npt temp 1900 ${newtemp2} 0.1 iso 0.0 0.0 1.0
fix		2 all npt temp 1900 1900 0.1 iso 0.0 0.0 1.0
run 		${nequil}
run 		100000
Per MPI rank memory allocation (min/avg/max) = 9.65 | 9.65 | 9.65 Mbytes
   Step          Temp          PotEng    
   8600000   1911.8188     -38121.136    
   8610000   1901.3567     -38139.414    
   8620000   1887.8008     -38102.474    
   8630000   1903.7968     -38077.933    
   8640000   1898.14       -38107.953    
   8650000   1890.5059     -38167.403    
   8660000   1892.4493     -38076.456    
   8670000   1865.4164     -38100.382    
   8680000   1894.8427     -38114.799    
   8690000   1910.4204     -38128.501    
   8700000   1888.9727     -38117.268    
Loop time of 1609.77 on 1 procs for 100000 steps with 10976 atoms

Performance: 5.367 ns/day, 4.472 hours/ns, 62.121 timesteps/s, 681.838 katom-step/s
30.5% CPU use with 1 MPI tasks x 1 OpenMP threads

MPI task timing breakdown:
Section |  min time  |  avg time  |  max time  |%varavg| %total
---------------------------------------------------------------
Pair    | 1379.3     | 1379.3     | 1379.3     |   0.0 | 85.68
Neigh   | 143.84     | 143.84     | 143.84     |   0.0 |  8.94
Comm    | 13.859     | 13.859     | 13.859     |   0.0 |  0.86
Output  | 0.00042    | 0.00042    | 0.00042    |   0.0 |  0.00
Modify  | 62.394     | 62.394     | 62.394     |   0.0 |  3.88
Other   |            | 10.38      |            |       |  0.64

Nlocal:          10976 ave       10976 max       10976 min
Histogram: 1 0 0 0 0 0 0 0 0 0
Nghost:           7916 ave        7916 max        7916 min
Histogram: 1 0 0 0 0 0 0 0 0 0
Neighs:         247386 ave      247386 max      247386 min
Histogram: 1 0 0 0 0 0 0 0 0 0

Total # of neighbors = 247386
Ave neighs/atom = 22.538812
Neighbor list builds = 11584
Dangerous builds = 0
unfix		2

#Se colecta estadistica
print	  	"Stats collecting starts"
Stats collecting starts
fix		3 all npt temp ${newtemp2} ${newtemp2} 0.1 iso 0.0 0.0 1.0
fix		3 all npt temp 1900 ${newtemp2} 0.1 iso 0.0 0.0 1.0
fix		3 all npt temp 1900 1900 0.1 iso 0.0 0.0 1.0
dump            3 all custom ${ndump} dump.${newtemp2} id type x y z c_peratom fx fy fz
dump            3 all custom 5000 dump.${newtemp2} id type x y z c_peratom fx fy fz
dump            3 all custom 5000 dump.1900 id type x y z c_peratom fx fy fz
dump_modify   	3 element Au

#neigh_modify    once yes
run		${nstat}
run		100000
Per MPI rank memory allocation (min/avg/max) = 11.9 | 11.9 | 11.9 Mbytes
   Step          Temp          PotEng    
   8700000   1888.9727     -38117.268    
   8710000   1902.6983     -38131.29     
   8720000   1899.3627     -38100.047    
   8730000   1926.7877     -38099.05     
   8740000   1866.9403     -38114.833    
   8750000   1887.2878     -38123.066    
   8760000   1925.9292     -38087.846    
   8770000   1894.7417     -38094.221    
   8780000   1905.6283     -38138.813    
   8790000   1909.0667     -38115.341    
   8800000   1864.2682     -38138.168    
Loop time of 1684.02 on 1 procs for 100000 steps with 10976 atoms

Performance: 5.131 ns/day, 4.678 hours/ns, 59.382 timesteps/s, 651.774 katom-step/s
27.5% CPU use with 1 MPI tasks x 1 OpenMP threads

MPI task timing breakdown:
Section |  min time  |  avg time  |  max time  |%varavg| %total
---------------------------------------------------------------
Pair    | 1438.4     | 1438.4     | 1438.4     |   0.0 | 85.42
Neigh   | 148.02     | 148.02     | 148.02     |   0.0 |  8.79
Comm    | 15.041     | 15.041     | 15.041     |   0.0 |  0.89
Output  | 1.0096     | 1.0096     | 1.0096     |   0.0 |  0.06
Modify  | 70.557     | 70.557     | 70.557     |   0.0 |  4.19
Other   |            | 10.97      |            |       |  0.65

Nlocal:          10976 ave       10976 max       10976 min
Histogram: 1 0 0 0 0 0 0 0 0 0
Nghost:           7905 ave        7905 max        7905 min
Histogram: 1 0 0 0 0 0 0 0 0 0
Neighs:         247461 ave      247461 max      247461 min
Histogram: 1 0 0 0 0 0 0 0 0 0

Total # of neighbors = 247461
Ave neighs/atom = 22.545645
Neighbor list builds = 11595
Dangerous builds = 0
unfix		3
undump		3

#if "${newtemp2} > ${temp2}" then "jump SELF break3"
next c
jump SELF loop3
variable	c loop ${n3}
variable	c loop 19
variable	newtemp1 equal (v_c-1)*50+v_tempb
variable	newtemp2 equal v_newtemp1+50

#Rampa de T
print	  	"Temperature ramp starts"
Temperature ramp starts
fix             1 all npt temp ${newtemp1} ${newtemp2} 0.1 iso 0.0 0.0 1.0
fix             1 all npt temp 1900 ${newtemp2} 0.1 iso 0.0 0.0 1.0
fix             1 all npt temp 1900 1950 0.1 iso 0.0 0.0 1.0
run		${nramp}
run		200000
Per MPI rank memory allocation (min/avg/max) = 9.65 | 9.65 | 9.65 Mbytes
   Step          Temp          PotEng    
   8800000   1864.2682     -38138.168    
   8810000   1930.4035     -38101.372    
   8820000   1904.0776     -38113.103    
   8830000   1884.0093     -38101.517    
   8840000   1914.73       -38119.285    
   8850000   1895.5082     -38114.463    
   8860000   1930.9702     -38081.478    
   8870000   1904.9494     -38056.813    
   8880000   1906.6095     -38108.354    
   8890000   1945.1064     -38058.332    
   8900000   1938.6884     -38072.2      
   8910000   1916.0385     -38050.541    
   8920000   1927.7288     -38068.83     
   8930000   1928.2517     -38071.485    
   8940000   1933.8028     -38024.691    
   8950000   1931.8547     -38067.871    
   8960000   1959.4508     -38041.268    
   8970000   1954.3565     -38039.57     
   8980000   1963.28       -38054.408    
   8990000   1944.6302     -38008.947    
   9000000   1955.0118     -37977.94     
Loop time of 3293.59 on 1 procs for 200000 steps with 10976 atoms

Performance: 5.247 ns/day, 4.574 hours/ns, 60.724 timesteps/s, 666.507 katom-step/s
30.0% CPU use with 1 MPI tasks x 1 OpenMP threads

MPI task timing breakdown:
Section |  min time  |  avg time  |  max time  |%varavg| %total
---------------------------------------------------------------
Pair    | 2816.7     | 2816.7     | 2816.7     |   0.0 | 85.52
Neigh   | 294.52     | 294.52     | 294.52     |   0.0 |  8.94
Comm    | 28.717     | 28.717     | 28.717     |   0.0 |  0.87
Output  | 0.001127   | 0.001127   | 0.001127   |   0.0 |  0.00
Modify  | 132.31     | 132.31     | 132.31     |   0.0 |  4.02
Other   |            | 21.39      |            |       |  0.65

Nlocal:          10976 ave       10976 max       10976 min
Histogram: 1 0 0 0 0 0 0 0 0 0
Nghost:           7888 ave        7888 max        7888 min
Histogram: 1 0 0 0 0 0 0 0 0 0
Neighs:         246432 ave      246432 max      246432 min
Histogram: 1 0 0 0 0 0 0 0 0 0

Total # of neighbors = 246432
Ave neighs/atom = 22.451895
Neighbor list builds = 23304
Dangerous builds = 0
unfix		1

#Equilibrio a nueva T
print	  	"Equilibration starts"
Equilibration starts
fix		2 all npt temp ${newtemp2} ${newtemp2} 0.1 iso 0.0 0.0 1.0
fix		2 all npt temp 1950 ${newtemp2} 0.1 iso 0.0 0.0 1.0
fix		2 all npt temp 1950 1950 0.1 iso 0.0 0.0 1.0
run 		${nequil}
run 		100000
Per MPI rank memory allocation (min/avg/max) = 9.65 | 9.65 | 9.65 Mbytes
   Step          Temp          PotEng    
   9000000   1955.0118     -37977.94     
   9010000   1950.2406     -38075.053    
   9020000   1948.31       -38064.017    
   9030000   1919.085      -38037.677    
   9040000   1937.3711     -37989.259    
   9050000   1951.5102     -38048.582    
   9060000   1945.3737     -38046.229    
   9070000   1971.5964     -37983.16     
   9080000   1959.5845     -38025.242    
   9090000   1959.162      -38035.653    
   9100000   1957.9059     -37996.543    
Loop time of 1671.96 on 1 procs for 100000 steps with 10976 atoms

Performance: 5.168 ns/day, 4.644 hours/ns, 59.810 timesteps/s, 656.476 katom-step/s
27.6% CPU use with 1 MPI tasks x 1 OpenMP threads

MPI task timing breakdown:
Section |  min time  |  avg time  |  max time  |%varavg| %total
---------------------------------------------------------------
Pair    | 1428       | 1428       | 1428       |   0.0 | 85.41
Neigh   | 148.83     | 148.83     | 148.83     |   0.0 |  8.90
Comm    | 14.653     | 14.653     | 14.653     |   0.0 |  0.88
Output  | 0.000469   | 0.000469   | 0.000469   |   0.0 |  0.00
Modify  | 69.651     | 69.651     | 69.651     |   0.0 |  4.17
Other   |            | 10.85      |            |       |  0.65

Nlocal:          10976 ave       10976 max       10976 min
Histogram: 1 0 0 0 0 0 0 0 0 0
Nghost:           7857 ave        7857 max        7857 min
Histogram: 1 0 0 0 0 0 0 0 0 0
Neighs:         246125 ave      246125 max      246125 min
Histogram: 1 0 0 0 0 0 0 0 0 0

Total # of neighbors = 246125
Ave neighs/atom = 22.423925
Neighbor list builds = 11669
Dangerous builds = 0
unfix		2

#Se colecta estadistica
print	  	"Stats collecting starts"
Stats collecting starts
fix		3 all npt temp ${newtemp2} ${newtemp2} 0.1 iso 0.0 0.0 1.0
fix		3 all npt temp 1950 ${newtemp2} 0.1 iso 0.0 0.0 1.0
fix		3 all npt temp 1950 1950 0.1 iso 0.0 0.0 1.0
dump            3 all custom ${ndump} dump.${newtemp2} id type x y z c_peratom fx fy fz
dump            3 all custom 5000 dump.${newtemp2} id type x y z c_peratom fx fy fz
dump            3 all custom 5000 dump.1950 id type x y z c_peratom fx fy fz
dump_modify   	3 element Au

#neigh_modify    once yes
run		${nstat}
run		100000
Per MPI rank memory allocation (min/avg/max) = 11.9 | 11.9 | 11.9 Mbytes
   Step          Temp          PotEng    
   9100000   1957.9059     -37996.543    
   9110000   1942.8004     -37992.127    
   9120000   1937.2103     -38011.151    
   9130000   1925.9047     -38072.618    
   9140000   1942.4979     -38030.994    
   9150000   1929.0248     -38004.537    
   9160000   1939.8921     -38028.893    
   9170000   1982.2697     -38055.783    
   9180000   1955.2139     -38073.447    
   9190000   1953.7341     -37993.657    
   9200000   1937.5089     -38011.51     
Loop time of 1643.71 on 1 procs for 100000 steps with 10976 atoms

Performance: 5.256 ns/day, 4.566 hours/ns, 60.838 timesteps/s, 667.760 katom-step/s
23.9% CPU use with 1 MPI tasks x 1 OpenMP threads

MPI task timing breakdown:
Section |  min time  |  avg time  |  max time  |%varavg| %total
---------------------------------------------------------------
Pair    | 1398.8     | 1398.8     | 1398.8     |   0.0 | 85.10
Neigh   | 145.85     | 145.85     | 145.85     |   0.0 |  8.87
Comm    | 14.891     | 14.891     | 14.891     |   0.0 |  0.91
Output  | 0.94067    | 0.94067    | 0.94067    |   0.0 |  0.06
Modify  | 72.19      | 72.19      | 72.19      |   0.0 |  4.39
Other   |            | 11.08      |            |       |  0.67

Nlocal:          10976 ave       10976 max       10976 min
Histogram: 1 0 0 0 0 0 0 0 0 0
Nghost:           7863 ave        7863 max        7863 min
Histogram: 1 0 0 0 0 0 0 0 0 0
Neighs:         246249 ave      246249 max      246249 min
Histogram: 1 0 0 0 0 0 0 0 0 0

Total # of neighbors = 246249
Ave neighs/atom = 22.435222
Neighbor list builds = 11733
Dangerous builds = 0
unfix		3
undump		3

#if "${newtemp2} > ${temp2}" then "jump SELF break3"
next c
jump SELF loop3
variable	c loop ${n3}
variable	c loop 19
variable	newtemp1 equal (v_c-1)*50+v_tempb
variable	newtemp2 equal v_newtemp1+50

#Rampa de T
print	  	"Temperature ramp starts"
Temperature ramp starts
fix             1 all npt temp ${newtemp1} ${newtemp2} 0.1 iso 0.0 0.0 1.0
fix             1 all npt temp 1950 ${newtemp2} 0.1 iso 0.0 0.0 1.0
fix             1 all npt temp 1950 2000 0.1 iso 0.0 0.0 1.0
run		${nramp}
run		200000
Per MPI rank memory allocation (min/avg/max) = 9.65 | 9.65 | 9.65 Mbytes
   Step          Temp          PotEng    
   9200000   1937.5089     -38011.51     
   9210000   1976.9963     -37998.427    
   9220000   1948.0491     -38004.053    
   9230000   1936.0629     -37983.053    
   9240000   1938.9202     -37928.943    
   9250000   1980.8256     -37979.775    
   9260000   1969.9838     -38001.69     
   9270000   1968.8623     -37971.11     
   9280000   1948.4928     -37994.25     
   9290000   1971.5115     -37986.11     
   9300000   1962.911      -37948.825    
   9310000   1964.1955     -37920.097    
   9320000   1985.2973     -37989.386    
   9330000   1983.7005     -37927.441    
   9340000   2014.2619     -37979.119    
   9350000   1997.8842     -37929.16     
   9360000   1981.5118     -37881.108    
   9370000   2006.1483     -37904.573    
   9380000   1991.9716     -37952.042    
   9390000   2010.5605     -37932.63     
   9400000   2003.591      -37892.078    
Loop time of 2936.05 on 1 procs for 200000 steps with 10976 atoms

Performance: 5.885 ns/day, 4.078 hours/ns, 68.119 timesteps/s, 747.671 katom-step/s
38.9% CPU use with 1 MPI tasks x 1 OpenMP threads

MPI task timing breakdown:
Section |  min time  |  avg time  |  max time  |%varavg| %total
---------------------------------------------------------------
Pair    | 2508.7     | 2508.7     | 2508.7     |   0.0 | 85.44
Neigh   | 270.21     | 270.21     | 270.21     |   0.0 |  9.20
Comm    | 24.933     | 24.933     | 24.933     |   0.0 |  0.85
Output  | 0.000775   | 0.000775   | 0.000775   |   0.0 |  0.00
Modify  | 113.82     | 113.82     | 113.82     |   0.0 |  3.88
Other   |            | 18.42      |            |       |  0.63

Nlocal:          10976 ave       10976 max       10976 min
Histogram: 1 0 0 0 0 0 0 0 0 0
Nghost:           7836 ave        7836 max        7836 min
Histogram: 1 0 0 0 0 0 0 0 0 0
Neighs:         245233 ave      245233 max      245233 min
Histogram: 1 0 0 0 0 0 0 0 0 0

Total # of neighbors = 245233
Ave neighs/atom = 22.342657
Neighbor list builds = 23518
Dangerous builds = 0
unfix		1

#Equilibrio a nueva T
print	  	"Equilibration starts"
Equilibration starts
fix		2 all npt temp ${newtemp2} ${newtemp2} 0.1 iso 0.0 0.0 1.0
fix		2 all npt temp 2000 ${newtemp2} 0.1 iso 0.0 0.0 1.0
fix		2 all npt temp 2000 2000 0.1 iso 0.0 0.0 1.0
run 		${nequil}
run 		100000
Per MPI rank memory allocation (min/avg/max) = 9.65 | 9.65 | 9.65 Mbytes
   Step          Temp          PotEng    
   9400000   2003.591      -37892.078    
   9410000   2002.6137     -37932.236    
   9420000   1993.6263     -37929.324    
   9430000   2011.1692     -37909.646    
   9440000   1984.4117     -37908.25     
   9450000   1974.4664     -37899.599    
   9460000   2006.8471     -37892.385    
   9470000   2009.5294     -37935.966    
   9480000   1985.9837     -37865.089    
   9490000   2004.8427     -37928.13     
   9500000   2004.2842     -37895.106    
Loop time of 955.093 on 1 procs for 100000 steps with 10976 atoms

Performance: 9.046 ns/day, 2.653 hours/ns, 104.702 timesteps/s, 1.149 Matom-step/s
85.6% CPU use with 1 MPI tasks x 1 OpenMP threads

MPI task timing breakdown:
Section |  min time  |  avg time  |  max time  |%varavg| %total
---------------------------------------------------------------
Pair    | 817.01     | 817.01     | 817.01     |   0.0 | 85.54
Neigh   | 100.92     | 100.92     | 100.92     |   0.0 | 10.57
Comm    | 5.4591     | 5.4591     | 5.4591     |   0.0 |  0.57
Output  | 0.000292   | 0.000292   | 0.000292   |   0.0 |  0.00
Modify  | 27.341     | 27.341     | 27.341     |   0.0 |  2.86
Other   |            | 4.369      |            |       |  0.46

Nlocal:          10976 ave       10976 max       10976 min
Histogram: 1 0 0 0 0 0 0 0 0 0
Nghost:           7890 ave        7890 max        7890 min
Histogram: 1 0 0 0 0 0 0 0 0 0
Neighs:         245012 ave      245012 max      245012 min
Histogram: 1 0 0 0 0 0 0 0 0 0

Total # of neighbors = 245012
Ave neighs/atom = 22.322522
Neighbor list builds = 11868
Dangerous builds = 0
unfix		2

#Se colecta estadistica
print	  	"Stats collecting starts"
Stats collecting starts
fix		3 all npt temp ${newtemp2} ${newtemp2} 0.1 iso 0.0 0.0 1.0
fix		3 all npt temp 2000 ${newtemp2} 0.1 iso 0.0 0.0 1.0
fix		3 all npt temp 2000 2000 0.1 iso 0.0 0.0 1.0
dump            3 all custom ${ndump} dump.${newtemp2} id type x y z c_peratom fx fy fz
dump            3 all custom 5000 dump.${newtemp2} id type x y z c_peratom fx fy fz
dump            3 all custom 5000 dump.2000 id type x y z c_peratom fx fy fz
dump_modify   	3 element Au

#neigh_modify    once yes
run		${nstat}
run		100000
Per MPI rank memory allocation (min/avg/max) = 11.9 | 11.9 | 11.9 Mbytes
   Step          Temp          PotEng    
   9500000   2004.2842     -37895.106    
   9510000   1985.3427     -37895.237    
   9520000   2002.2324     -37913.02     
   9530000   1989.5571     -37913.691    
   9540000   2013.0602     -37877.077    
   9550000   2013.4133     -37908.249    
   9560000   1986.0595     -37954.038    
   9570000   2009.1574     -37956.711    
   9580000   2000.9371     -37897.626    
   9590000   2018.1667     -37898.359    
   9600000   2000.082      -37889.776    
Loop time of 960.123 on 1 procs for 100000 steps with 10976 atoms

Performance: 8.999 ns/day, 2.667 hours/ns, 104.153 timesteps/s, 1.143 Matom-step/s
85.9% CPU use with 1 MPI tasks x 1 OpenMP threads

MPI task timing breakdown:
Section |  min time  |  avg time  |  max time  |%varavg| %total
---------------------------------------------------------------
Pair    | 818.16     | 818.16     | 818.16     |   0.0 | 85.21
Neigh   | 101.08     | 101.08     | 101.08     |   0.0 | 10.53
Comm    | 5.4727     | 5.4727     | 5.4727     |   0.0 |  0.57
Output  | 0.63368    | 0.63368    | 0.63368    |   0.0 |  0.07
Modify  | 30.399     | 30.399     | 30.399     |   0.0 |  3.17
Other   |            | 4.385      |            |       |  0.46

Nlocal:          10976 ave       10976 max       10976 min
Histogram: 1 0 0 0 0 0 0 0 0 0
Nghost:           7917 ave        7917 max        7917 min
Histogram: 1 0 0 0 0 0 0 0 0 0
Neighs:         245282 ave      245282 max      245282 min
Histogram: 1 0 0 0 0 0 0 0 0 0

Total # of neighbors = 245282
Ave neighs/atom = 22.347121
Neighbor list builds = 11878
Dangerous builds = 0
ununfix		3
undump		3

#if "${newtemp2} > ${temp2}" then "jump SELF break3"
next c
jump SELF loop3
variable	c loop ${n3}
variable	c loop 19
variable	newtemp1 equal (v_c-1)*50+v_tempb
variable	newtemp2 equal v_newtemp1+50

#Rampa de T
print	  	"Temperature ramp starts"
Temperature ramp starts
fix             1 all npt temp ${newtemp1} ${newtemp2} 0.1 iso 0.0 0.0 1.0
fix             1 all npt temp 2000 ${newtemp2} 0.1 iso 0.0 0.0 1.0
fix             1 all npt temp 2000 2050 0.1 iso 0.0 0.0 1.0
run		${nramp}
run		200000
Per MPI rank memory allocation (min/avg/max) = 9.65 | 9.65 | 9.65 Mbytes
   Step          Temp          PotEng    
   9600000   2000.082      -37889.776    
   9610000   1998.4376     -37919.93     
   9620000   2020.2471     -37919.062    
   9630000   1985.8502     -37855.503    
   9640000   2026.5275     -37916.313    
   9650000   2000.7743     -37849.385    
   9660000   2021.3266     -37842.097    
   9670000   2001.4252     -37842.873    
   9680000   2042.5615     -37872.839    
   9690000   2021.6804     -37870.814    
   9700000   2033.2875     -37861.39     
   9710000   2040.0746     -37847.144    
   9720000   2043.3475     -37840.454    
