# LAMMPS data file written by OVITO Basic 3.8.0

21952 atoms
2 atom types

0.0 110.92 xlo xhi
0.0 54.46 ylo yhi
0.0 54.46 zlo zhi

Atoms  # atomic

2739 2 60.51274 0.621853 4.35027
4877 2 60.31765 4.4586 1.8348
780 2 57.83483 0.773895 4.27774
2294 2 58.09008 1.42432 2.26449
1201 2 59.12011 0.108436 1.06196
5125 2 60.27695 1.88824 2.32435
4199 1 58.5523 3.57205 3.26751
9935 2 59.58089 3.00914 0.307912
8754 1 56.5329455 2.7278 0.116376
6059 2 62.47884 3.31236 2.67559
5277 2 61.90038 1.41582 0.887966
1004 2 64.44497 1.15194 1.74187
7154 2 65.47496 3.07296 4.10128
6167 2 63.78972 1.60179 4.09254
10464 2 61.87548 3.44729 0.127188
1304 2 64.4053 3.38914 0.789478
9666 2 68.4243 0.662184 0.43557
6998 2 66.40833 0.123483 1.60084
3926 1 66.541 2.78818 1.81015
10829 2 68.8698 2.50189 2.807
9438 2 69.5187 0.27364 3.76791
5760 2 67.2932 0.818025 3.93083
5867 2 73.1392 0.839958 4.48399
9460 2 74.5447 0.286126 1.95445
5316 2 71.654 2.43562 3.32551
8553 2 73.7766 3.19599 2.96089
4946 2 73.6895 1.29728 0.131013
6448 2 70.4145 0.876053 1.50441
3395 2 77.6444 0.02506 2.46642
5150 2 77.6274 3.72781 1.13938
7948 2 75.534 1.64011 3.84023
3600 1 77.9036 2.58327 3.35155
9237 2 78.8387 1.52193 0.119737
3454 2 76.6996 1.37395 0.995043
5780 2 75.7721 4.49269 3.05589
10035 2 75.1626 3.53022 0.944762
7034 2 79.9775 2.89672 1.45506
1233 1 82.3742 3.76522 2.98425
3056 2 79.847 0.149252 2.93079
5839 1 81.8605 1.46411 1.73217
10905 2 80.5047 2.19134 3.81996
8095 2 81.8454 0.54554 3.9781
9332 2 82.1593 3.89373 0.541428
122 2 83.564 0.048824 0.253346
7325 1 86.5661 4.32727 3.84833
3315 1 85.2654 3.82156 1.90056
6753 1 87.4431 3.53673 0.994611
2929 1 84.8383 2.22726 0.288503
2518 1 85.5678 1.52075 2.40473
1215 1 86.5297 0.247104 0.657549
10824 2 90.0959 3.5118 1.36878
8447 2 90.6079 3.02707 3.74047
9794 2 91.2468 1.70954 1.46701
7808 1 88.4201 2.12124 2.71587
6690 1 88.6571 4.15699 4.51821
8575 1 92.732 0.0701213 3.88204
6320 2 90.2825 0.472804 3.64373
9777 2 93.357 2.2515 2.87232
2212 2 95.9992 3.49448 3.12756
2181 2 96.8142 1.53383 1.76754
8370 2 95.035 2.76838 0.802519
10075 1 95.4596 0.294795 3.55426
4019 2 93.6488 0.0595816 1.46476
423 2 99.8806 1.43416 4.40827
3310 2 101.5451 2.79723 3.27172
10530 2 98.3917 0.0477681 2.90834
170 2 99.0083 2.55759 2.21864
485 1 101.4113 2.58582 0.495269
2943 2 103.3888 1.38966 3.75483
6428 1 103.3723 2.09941 1.4734
9566 2 103.6836 4.23982 3.09826
517 2 106.0615 4.2369 1.30941
7529 1 105.7336 1.74025 1.98739
10876 2 110.3159 0.338776 1.78127
1933 2 110.2111 2.73497 3.2174
1177 2 107.9835 0.467286 2.0795
9920 1 107.1324 3.34731 3.26876
7346 2 107.3407 0.973579 4.00737
4897 2 109.2569 4.25633 4.51295
9768 2 108.251 2.88754 1.12377
3 2 106.8685 0.514883 0.0475944
3545 1 58.15907 5.8121 3.90013
10881 2 59.50409 6.87256 1.66659
6313 1 60.8942 5.48394 3.8662
375 2 57.237733 7.56891 1.6133
1014 1 58.3475 8.64545 4.32129
4923 1 57.55915 5.04695 1.26173
4652 1 64.35592 5.32179 2.72133
7700 1 61.45849 8.02278 3.05602
2707 1 62.13503 6.51437 1.30906
2671 2 64.29726 6.16445 0.311128
8175 2 63.3053 8.33517 0.065177
4849 1 63.1327 6.92347 4.50983
9694 2 64.21844 7.98653 2.21691
9960 1 66.04462 8.2645 0.450929
466 1 70.0155 7.31378 1.80507
8287 2 68.312 4.57793 1.07847
8543 1 67.2709 6.68464 2.07471
2149 1 66.3783 8.70878 3.26695
6116 1 68.1051 9.04575 1.10734
1471 1 67.5172 4.58923 3.39493
554 1 69.7507 8.68444 3.60868
5074 1 71.1529 5.08682 1.33804
5131 1 73.8187 8.12782 4.34088
6488 1 73.4669 5.64246 2.2085
4696 1 71.7485 7.26286 3.67016
8695 1 72.4321 8.80786 2.10816
2326 2 70.2423 4.65837 3.74418
1095 2 75.8064 5.67088 0.974524
88 2 78.6412 5.20446 2.34971
4011 2 77.3082 7.50377 0.66513
2247 2 74.8442 7.82884 1.68083
7275 1 76.6481 6.87023 3.18409
2964 1 78.9582 8.12507 2.50442
7592 1 82.9443 5.54048 4.50625
10727 1 82.6885 7.58999 3.13385
8670 1 80.9933 6.62854 1.7989
4166 1 79.7754 8.44245 0.110748
4298 2 81.0011 9.05856 4.1238
9584 1 83.8317 5.62607 0.945004
10561 1 86.0104 6.46138 0.425111
3476 1 85.2642 6.18754 2.91674
3721 1 87.6698 5.50671 2.01673
3798 2 84.1348 8.52033 1.21447
2773 1 85.0659 8.35687 3.89003
3112 2 87.212 8.14443 2.09415
1812 2 91.6697 4.88036 0.616548
6009 2 89.8855 8.82688 1.12222
9011 1 89.9749 6.02757 2.12333
208 2 89.2342 8.15594 3.87267
5657 2 92.377 4.81029 3.31058
199 2 91.9956 8.08647 4.00449
2762 2 90.066 6.17737 4.49285
5708 2 91.6428 8.27448 0.0188655
6953 2 92.297 7.0363 1.78977
3636 2 94.3843 4.8305 1.49688
5527 1 97.131 4.85932 0.980585
5111 2 93.7596 6.55407 3.68746
2812 1 94.9085 9.01939 4.12266
3231 1 94.0488 7.1552 0.094119
3496 2 96.0543 6.51182 3.12814
5242 1 96.388 7.40557 0.607258
5353 1 99.173 5.3859 1.68878
7246 1 99.5706 7.93071 0.0657377
3503 2 98.1027 7.77534 2.24909
1202 2 99.7159 6.22515 4.04923
5396 1 101.0592 7.51661 1.94426
3181 2 101.7035 4.91511 2.10659
8616 1 97.6372 5.16126 3.86313
6006 1 103.3867 6.98077 2.25841
10543 1 105.8352 5.99767 3.1269
10920 2 103.7554 5.04194 0.604783
3061 1 105.7751 7.2554 0.375924
3066 1 104.5997 8.76067 2.9819
6940 1 109.1452 5.23132 2.28062
5946 2 110.2471 7.46835 3.81043
4312 2 109.1289 7.61602 1.26251
2476 1 106.961 8.06493 2.40936
921 2 59.33027 9.32199 2.11058
5931 2 56.569246 9.55614 2.61674
315 2 60.71182 11.4831 2.60617
3997 2 59.79347 11.5451 0.390783
10433 1 58.60643 11.3331 3.69953
9164 1 57.48644 11.6972 1.41139
8120 2 62.36558 9.85816 2.10093
10034 1 63.49407 12.5569 2.19818
8875 1 64.6512 10.3759 0.907456
10648 2 64.9435 11.5236 3.8624
8097 2 62.35581 13.6031 4.30991
5575 2 64.29106 9.18621 4.47116
4488 2 61.31412 9.32879 0.0124331
8563 1 68.0858 10.4973 2.86797
6180 2 66.5311 12.4895 2.24883
3373 1 68.8157 13.0724 0.883413
5959 1 69.287 12.7521 3.0791
10570 1 67.1022 11.1019 0.208873
7856 1 70.0884 10.181 1.72329
1332 2 71.8558 11.4175 2.74765
2630 2 74.2192 10.569 1.69836
10182 1 73.8405 11.7993 4.04304
1846 1 70.3264 10.8453 4.49174
56 2 72.13 13.479 3.82162
5030 2 72.0144 10.1924 0.197479
7199 1 71.5522 13.1209 1.16341
2914 1 75.939 9.68269 3.93282
6317 2 76.697 9.78662 1.56035
9669 1 76.614 12.1554 2.97827
739 2 78.8421 10.6735 0.66059
9917 1 77.7079 13.4311 1.17844
4764 2 78.9692 10.6496 3.66002
10513 1 75.2096 13.3257 0.244891
3660 2 81.1426 9.40784 1.67338
940 2 81.1503 11.6005 3.51892
6817 2 83.042 9.80503 3.25087
2372 2 80.0855 13.5038 2.25283
5766 2 81.5984 11.6669 1.02296
8037 2 83.188 12.4172 2.89591
3899 2 87.7225 10.323 1.9352
7789 2 85.7096 11.0798 3.14953
10351 2 86.1852 9.37936 0.250031
5915 2 87.4227 12.6764 1.14963
10643 2 84.5063 11.2216 1.07085
9663 2 89.9042 12.0744 1.74253
9595 2 90.8722 10.1004 2.749
9569 2 88.3786 11.5451 3.56299
10623 2 92.4245 11.4628 1.68984
4342 1 95.9902 9.30747 1.90733
1877 1 95.6248 12.9296 0.92619
8008 2 93.1048 9.32294 1.9107
8702 2 92.7802 11.9674 4.1919
1971 2 94.8652 11.7785 3.21016
3479 1 97.3327 11.4986 2.19611
7038 1 99.147 9.95185 3.6257
5487 1 100.1654 10.2432 1.55423
7448 1 98.266 12.7468 4.16761
2859 2 99.8329 12.7964 1.74184
5998 1 98.1874 9.63127 0.614109
8001 1 102.0973 9.23889 0.414939
6675 1 102.122 9.41979 3.05986
9633 1 104.5165 11.0972 3.04381
4862 1 102.4929 12.3301 2.58647
980 1 104.9781 9.35365 0.679317
10836 1 105.9961 12.1431 0.278253
7566 1 104.5809 13.2325 1.88449
4512 1 108.8244 10.4701 1.78761
4848 1 108.3035 13.0071 1.28122
3346 1 107.3898 9.22597 0.0413622
5430 2 107.8002 13.4426 3.66654
3250 2 110.2871 12.4182 2.89846
10520 2 106.7094 11.2833 2.44722
519 2 108.2481 9.46232 3.97348
5949 2 110.6888 9.51769 0.234222
10646 2 59.69014 13.7939 2.9532
10231 1 56.830546 17.6407 0.96834
9549 2 60.71501 15.9518 1.1272
293 1 59.03939 17.4199 2.81188
106 2 57.364569 15.3806 2.19385
10288 2 59.23967 17.4773 0.321441
3834 2 57.58504 13.9337 4.52467
8518 2 58.56454 14.5108 0.219985
5952 1 61.49222 16.244 3.42481
7117 1 61.91992 13.6665 1.22421
6230 2 63.08894 16.8949 1.46215
2642 2 64.3284 15.1044 0.823739
3722 2 63.63033 17.9412 3.92226
2700 2 64.62613 15.666 3.55224
3776 2 65.77708 16.9572 1.45696
1185 1 66.7102 14.0273 0.240572
7549 2 66.9643 14.7952 3.35857
445 2 67.8642 16.9809 3.15294
4774 1 69.9941 15.5327 2.61663
109 1 67.8106 16.249 0.212003
3067 1 73.2755 17.22 0.933416
3668 1 70.417 18.1523 3.55135
3318 1 73.7728 14.1857 1.91313
5449 1 72.2267 16.2122 3.16275
3054 2 74.2932 14.3236 4.47659
7095 1 74.417 16.9238 3.2651
1444 1 70.6242 17.5688 1.0954
302 1 76.6946 14.6647 2.87118
10847 1 77.919 16.0167 0.826045
5908 1 75.2724 15.7108 0.818731
8318 1 76.4859 17.8273 3.89433
3443 1 78.2736 16.0747 4.21608
6439 2 82.5786 14.7857 2.31418
5840 1 82.4146 17.5387 3.22157
2333 1 80.6429 16.3233 4.28677
5171 2 80.4873 15.8008 1.92709
5637 2 81.9463 13.8094 4.35136
9051 1 79.5846 18.0847 1.84569
3554 1 82.2043 16.7819 0.360061
10384 1 85.9102 13.8323 3.33577
1836 1 85.0314 13.9375 1.15582
7827 2 84.5212 16.6189 1.81433
6524 1 87.4252 15.2026 0.861551
1276 1 84.1525 15.3053 4.31561
10604 2 85.4378 17.3905 3.75279
7183 2 87.1712 16.1671 3.26193
8072 1 86.9627 17.4259 0.73596
7753 2 89.8547 14.3364 1.06506
2732 1 88.4164 14.0528 2.80774
5929 2 92.3706 17.3365 3.25567
8209 2 92.3358 15.0899 1.18081
501 2 90.9196 14.6462 3.52883
2468 2 89.7443 16.7116 0.0802469
1774 1 89.8802 16.944 2.49571
5578 2 92.2305 17.6423 0.503241
10913 2 93.5248 13.9135 3.03537
730 2 94.6942 15.1224 0.383853
4077 2 96.8185 16.4492 2.54483
7221 2 96.9314 16.2115 0.195471
3556 2 95.7139 14.6402 3.79197
2223 2 94.4342 16.1701 2.50545
6237 1 95.8668 17.809 4.13712
10333 1 97.4595 14.079 1.26699
1415 1 99.9025 15.6878 0.885083
9092 1 101.7146 16.2945 2.44778
3193 1 99.2176 14.8118 3.07152
10895 1 99.2054 17.1074 3.45865
2198 1 102.083 14.2073 0.957613
406 1 104.0137 15.5519 1.2799
318 1 104.9024 17.275 3.67824
1987 1 104.1415 18.1378 1.48641
8902 1 103.5951 14.4717 3.71859
7896 2 106.5037 16.72 1.5923
3230 2 110.5525 13.7581 0.692557
121 2 108.9667 17.7461 2.30498
7405 2 109.5403 14.7694 4.45739
9098 2 107.872 17.0131 4.28069
10319 2 110.7888 16.8028 4.50038
1839 2 106.4931 15.2783 3.44888
1047 2 108.7263 15.3187 2.23781
8115 2 56.787245 19.3682 2.96031
10811 2 58.37921 19.4313 0.526791
3786 1 57.158188 21.6254 0.549625
8163 1 60.92776 20.1758 0.657634
9094 1 59.74243 22.2742 0.995703
4514 2 57.65051 20.7299 4.50374
1496 2 59.16206 20.3109 2.79749
10347 2 61.23481 18.803 2.6617
639 2 61.64173 21.5281 3.45443
64 1 63.87784 20.1436 2.45093
2785 2 63.34968 19.4012 0.310634
5173 1 62.28781 22.0224 0.738944
3322 2 66.38401 21.7895 3.85351
5003 2 68.07 18.3579 1.52118
6361 2 69.0412 20.4232 0.210203
6438 2 68.3167 20.6832 3.23867
9830 1 66.22607 18.7146 3.32231
6733 2 66.6481 20.6561 1.48003
7180 2 70.0027 22.3305 0.535131
2106 2 70.6608 19.9607 1.99895
6700 1 72.3865 21.6286 1.41973
2473 2 73.168 19.108 2.56613
5764 1 72.8676 21.3063 3.89705
6050 2 70.3115 22.0294 2.82064
3416 2 73.4994 19.5708 0.445218
6571 2 74.4941 22.4859 0.157223
5312 1 76.567 22.5636 3.10936
964 1 78.4231 19.4414 0.167326
3965 1 78.5409 21.8296 1.6264
7725 1 78.9154 21.856 4.103
6984 1 77.7916 19.6023 2.35648
3396 1 75.4044 20.5582 2.3461
6973 1 75.8272 18.2234 1.64015
1334 1 82.766 21.1083 1.52683
4863 1 81.5693 18.9669 0.791055
9670 2 80.7741 20.2241 2.68495
4099 1 79.302 18.998 4.48595
3472 1 83.087 22.0416 3.53436
7812 2 80.672 21.6287 0.28253
7113 2 86.4388 19.8314 0.507913
3219 1 85.06 22.4012 0.264523
1045 2 84.0564 18.9715 1.25465
6707 2 88.1786 18.4648 3.06528
4751 2 86.1577 19.6314 2.87009
9277 2 83.7206 19.6362 3.76825
9527 1 85.1489 21.6508 2.70629
6041 2 91.0572 19.5122 3.49675
4159 2 92.1678 20.6618 1.20786
4789 1 88.8244 21.0451 4.52498
4180 1 91.1501 21.9178 3.30704
190 2 90.4005 18.8387 1.23934
1167 1 88.8413 20.8425 2.39742
10378 1 90.8777 22.2113 0.0462808
424 2 94.1221 18.8815 1.72536
10769 2 94.8948 21.3756 1.07259
7906 2 96.4219 18.3875 1.30369
4032 2 95.536 20.7233 3.42273
8665 2 93.4429 20.4218 3.34322
7909 1 97.6586 19.2811 3.03569
8678 1 97.5085 21.4964 1.35011
7114 1 100.5516 20.668 1.86975
9419 1 101.6411 18.6683 2.78364
2820 2 100.2539 19.9539 4.25961
578 1 98.9821 18.596 0.988362
9071 2 106.3751 18.8 2.86257
2234 2 101.9124 19.5044 0.279885
4263 2 102.573 22.0166 1.27233
10198 1 103.2503 20.2318 3.01768
8129 2 105.5702 20.8619 2.1735
8948 2 108.1294 21.091 2.31178
10036 2 110.6142 21.6857 2.73082
2697 2 106.8793 21.9403 4.17219
7170 1 108.4841 19.5333 4.18194
160 1 109.5754 19.8282 0.636558
10115 1 107.0006 19.0137 0.453081
4800 1 56.588948 23.5983 4.02665
4861 1 58.29555 24.1391 1.30902
4726 2 58.9847 25.4594 2.91246
4872 2 59.2891 22.9314 3.52723
10729 2 57.71483 26.7243 1.2596
9291 1 61.10216 24.4296 1.02889
10692 2 61.3336 24.1398 3.39989
9458 1 63.42392 22.7561 3.03687
10117 1 62.98515 25.4618 1.35239
5317 1 61.66679 27.1456 3.69854
7127 2 63.6326 24.9906 3.74373
9308 2 65.24044 22.7387 1.21241
5913 1 68.0874 22.978 2.26137
2926 2 65.66469 24.1786 3.09493
3115 2 68.0496 25.3686 3.18362
5025 2 65.95893 26.5191 2.03937
4295 2 69.6171 25.8826 1.24057
10680 2 67.4546 25.0296 0.968629
4388 2 71.2922 23.8863 1.7635
7903 1 72.9656 25.5254 3.57934
2390 1 70.2202 25.6461 3.83965
157 2 74.1891 23.1494 2.47072
8969 2 72.6922 25.8339 0.933921
10536 1 76.6133 23.2161 0.677652
1709 2 75.4367 25.6782 0.65032
1086 1 77.1884 24.9127 3.02978
2787 1 78.475 25.7834 1.17238
8906 2 83.1017 23.9435 1.73661
2308 2 81.313 25.6133 2.01829
10074 1 79.5824 24.6246 3.88237
10486 1 79.79 23.7554 1.39612
792 1 81.0339 22.804 3.1025
8802 1 83.2374 26.6789 2.23071
5622 1 87.897 22.9197 1.92312
2058 1 86.0425 26.8185 1.29979
426 1 85.9523 24.3883 1.86492
3920 1 86.836 22.9555 4.21892
26 1 84.8495 24.0917 3.81736
9515 1 89.9977 23.7961 1.35239
9842 1 89.3939 23.3848 4.02006
8351 1 92.3373 23.381 1.72406
3773 2 91.2837 25.947 3.54734
8993 2 88.681 25.7476 1.92858
6300 1 93.2699 25.64 1.77522
4043 1 93.3044 24.9292 4.44169
3466 2 95.5859 26.3764 1.01827
4784 2 95.1854 23.6987 0.874428
10505 2 96.9047 22.8752 3.25775
1157 2 94.3122 22.7179 2.97236
5863 1 95.4306 25.0316 3.35378
2797 2 100.0877 25.4805 2.77379
10375 2 97.5662 24.3719 1.05978
2822 2 97.8191 25.0013 3.96963
6371 2 100.8341 24.6359 0.593657
282 2 101.6569 26.3033 1.49953
9125 2 99.2913 23.4229 4.35039
7686 2 101.4246 23.1601 2.79353
8714 2 101.57 26.5594 3.97683
8443 2 99.4338 22.8824 1.53741
4292 1 106.1551 23.3282 1.65847
7718 1 106.1577 25.8968 3.05562
9215 2 105.2647 26.089 0.604839
1962 2 104.0434 22.9075 2.94418
2047 2 103.4453 25.2577 2.97981
3985 2 103.1174 24.4068 0.737001
6647 2 108.3034 24.2045 3.32611
3962 2 110.4522 25.0753 0.336982
1481 1 110.3266 25.9071 2.7902
6280 1 107.506 25.3881 0.969713
6564 2 109.5197 23.4283 1.52072
6131 2 109.328 27.0617 0.0164919
2041 1 107.9757 26.5045 4.52283
3802 1 57.60113 27.8382 3.36293
828 2 59.79797 27.5267 1.55733
1446 1 60.98439 29.5271 3.7612
8459 2 58.31296 30.5277 3.90805
130 2 59.27338 29.9985 1.56981
5369 1 56.849913 31.1955 1.44816
1995 2 63.66505 27.4439 2.53906
3720 2 64.79972 27.6133 0.292181
9574 2 64.32994 31.6913 3.4061
5872 2 64.23613 29.7481 1.31425
9963 2 62.32552 31.247 2.07643
345 2 64.46103 29.4005 3.84896
4308 2 62.1489 28.7357 1.09977
9350 2 67.6957 27.235 4.11134
10153 2 69.4505 28.2245 3.01922
1003 2 66.5102 29.1158 2.83322
10548 2 69.8418 31.6196 3.00053
1935 2 66.30673 29.5365 0.0925085
4462 1 68.372 29.8093 4.50331
4050 2 68.9149 30.0186 0.514509
9724 1 67.8926 27.8333 0.991516
10780 1 73.2108 28.2885 3.58532
251 2 71.5294 30.1965 1.94282
8892 2 74.2905 30.0704 2.58865
9946 2 72.7292 30.6237 4.19742
9938 2 71.5321 27.5155 2.30937
10795 1 73.304 28.6123 0.591483
7270 2 79.0321 28.864 1.00171
5026 2 77.236 27.786 1.03999
1583 1 77.0741 30.5058 2.27845
7332 2 75.1241 27.2437 2.26922
9334 1 78.4532 27.3354 3.34057
5066 2 76.2114 28.211 4.18075
2940 1 75.4918 29.5227 0.569112
4498 1 81.4677 27.565 0.382507
6722 2 80.9006 28.0511 2.81063
7481 2 79.9454 31.1302 0.987091
394 2 79.5772 30.1865 3.48236
5778 1 83.0721 29.2806 3.81827
3908 2 82.3642 30.0277 1.30517
10611 2 86.9102 27.4516 3.92528
181 1 85.1868 29.256 2.42751
7873 2 84.5516 31.4457 4.20218
4244 1 86.3064 29.5413 0.541187
7306 2 87.717 29.2423 2.34655
4519 1 84.6805 31.3559 1.44786
9479 2 86.6417 31.1496 3.43284
3824 1 87.1845 31.6636 0.844708
5853 1 84.1457 28.2688 0.522217
6520 1 91.7018 28.448 2.88327
4451 2 92.0219 27.4415 0.513257
9029 2 89.9531 28.1151 1.35843
7210 2 89.3949 27.5434 3.75668
6040 2 89.4634 31.1703 1.93499
1359 1 91.6847 30.0369 0.573604
10247 2 90.7313 30.2573 4.52151
5022 1 94.0043 28.9525 1.9327
7780 1 95.9805 27.9452 3.10117
10346 1 92.9232 30.7592 3.5203
10125 1 93.6692 27.2506 3.76637
6754 1 94.0501 31.7672 1.39207
2187 1 96.1681 29.6134 0.554909
490 1 96.7807 31.6034 2.7102
5891 2 95.2493 30.0484 4.27451
9384 2 99.7199 27.7889 2.82573
2734 2 100.3942 30.6674 3.31483
10859 2 97.7867 29.6516 3.76959
6496 1 101.1044 30.9918 0.512764
4018 1 98.3931 29.887 1.41283
9480 1 100.4465 27.9447 0.0636514
8448 1 97.8219 27.4605 1.37257
6684 1 104.0802 28.2963 1.3017
8426 1 103.9316 27.5016 3.83564
3386 1 106.2774 28.0278 1.93279
5729 1 103.0266 31.3136 2.44123
5655 1 104.5588 30.0597 3.57839
4569 2 101.9718 29.0271 2.18611
6436 1 105.3094 31.0253 0.775223
5861 1 103.1704 31.7337 0.15343
5986 1 109.9098 29.9741 3.15382
2160 1 108.8472 27.9908 2.34032
4096 2 107.21 29.914 3.45916
4534 2 107.6993 29.8709 0.805778
3188 1 110.6079 29.1707 0.670913
2831 2 58.83627 32.585 2.33919
10402 1 59.26805 33.8448 0.126761
8552 1 60.55965 34.6186 4.01227
8905 2 56.855843 32.6843 4.03343
7847 1 56.58617 33.7435 0.736971
70 1 57.95297 35.7366 1.80046
10294 2 61.04108 33.5704 1.83105
10574 1 64.04854 34.5512 1.7158
3976 2 62.61413 33.1744 3.8209
2348 1 61.89676 35.7704 0.892572
9895 1 65.5161 31.9543 0.646696
5790 1 66.5325 34.5959 1.27627
5668 1 67.0562 31.9357 2.51216
710 2 65.60957 33.4079 4.2905
1200 2 69.3951 33.5037 1.60735
10177 1 68.0258 34.8762 3.38015
3129 1 65.64387 35.8476 3.52172
1465 1 67.6043 32.2308 0.090892
8403 2 73.0226 31.8513 0.795388
4913 2 70.2246 33.7269 4.04594
1589 2 70.4206 35.4424 2.2986
4891 1 73.8621 34.7306 1.34605
6366 1 72.7352 33.0202 3.25614
6432 2 70.4807 32.1293 0.287255
6003 2 71.7375 34.0045 0.231923
5562 2 77.861 34.8678 3.14259
908 2 75.9939 32.3605 0.389373
10514 2 75.4209 35.8138 2.99608
1393 1 75.5068 32.7674 3.03887
482 2 78.6787 32.3045 3.18462
4730 1 75.6383 35.8653 0.322008
5069 1 77.1484 34.3703 0.954551
2017 2 81.7254 32.3105 2.49496
8938 2 81.7248 35.7763 0.891054
2288 1 82.8914 33.7309 4.46063
7387 1 79.3386 36.0255 0.523047
9679 1 80.2218 35.7411 3.12776
8384 1 80.6411 33.3283 4.53376
7399 2 80.1293 33.7313 1.08511
3911 1 82.7579 32.1717 0.268568
3047 1 83.9339 33.874 1.95832
6060 1 87.7495 33.1931 3.86351
6963 1 85.4347 33.5837 4.23443
4703 1 87.0267 33.9599 1.90707
3587 1 87.9958 36.2857 2.21674
3539 2 91.9161 32.5507 1.87674
8200 1 92.6241 35.203 0.202093
3426 1 88.4264 35.2343 4.42345
257 1 90.9856 35.5674 2.65135
5273 2 90.2621 32.6733 3.94455
4550 1 89.6235 33.5959 1.39968
6699 1 93.1913 33.6914 3.83114
2687 1 94.9541 34.3667 1.90214
6356 1 96.6094 36.0346 2.44445
6399 1 95.3792 32.8665 4.03896
9642 1 96.0681 32.2357 0.11244
5869 2 98.6664 32.5822 3.98099
180 1 97.554 33.8457 1.71103
8401 2 101.0392 34.7468 3.59515
133 1 98.7871 35.7394 4.35858
5675 2 99.7695 32.7099 1.91341
5910 1 99.6008 35.4104 1.46146
10130 2 104.5045 32.9584 4.505
444 2 103.4329 34.7984 3.49433
6789 2 105.7667 34.9221 3.65243
5842 2 102.0301 32.3415 4.43065
6301 1 102.1437 33.9658 1.45467
2966 1 104.6113 34.5593 1.23329
765 1 110.8582 35.2679 3.67937
3553 2 106.6468 32.5261 3.44957
7793 1 106.7665 35.8513 1.33193
6976 1 106.5924 33.0456 1.05907
7299 1 108.6062 34.4295 4.18489
8567 2 109.5403 35.2378 1.79639
10641 2 109.1926 32.5131 2.68944
6708 2 58.28086 37.7098 4.25621
9356 1 57.459113 40.2232 3.07544
8844 1 60.24489 36.4501 2.5842
7766 1 60.42012 40.243 1.91274
1106 1 58.82297 38.5811 1.84219
5127 1 59.32206 36.5249 0.347734
2521 1 56.834584 39.9261 0.408281
9634 1 62.58642 39.7797 3.2272
3378 1 63.49736 38.5561 1.31473
9219 1 61.16203 38.057 0.431542
2708 1 62.24195 37.6043 2.72398
1497 1 64.70172 36.5141 0.699812
4949 1 64.97026 40.2902 3.7849
1628 1 63.9123 38.0347 4.23155
7322 1 66.32194 37.771 2.71531
4581 1 68.681 38.704 0.827899
7689 1 68.9887 39.4949 3.12147
5027 1 68.4082 36.4684 1.30182
116 2 68.2754 37.3303 4.41622
9049 1 65.89209 40.4778 1.48774
101 2 69.9096 40.6914 0.0281102
8032 2 70.8383 37.626 3.59616
7123 2 72.5812 39.5257 0.519332
2774 1 73.8436 39.5092 3.09761
8245 2 71.0408 38.5737 1.40803
2947 1 73.2993 36.7924 2.30279
6140 2 78.4239 37.1241 3.78082
10825 2 74.7298 38.1542 1.1227
6562 1 77.3245 37.342 1.44079
9152 1 79.0265 39.61 1.04993
767 2 76.212 38.2126 3.89667
5308 2 75.6608 40.206 1.83856
10111 1 78.063 39.6035 4.49371
1280 1 80.3184 37.7879 1.60448
1890 1 82.6859 38.0573 0.675917
9796 1 82.7017 36.6218 3.43306
9612 2 81.7931 40.7695 0.200258
10598 1 80.6913 38.3286 4.40213
1602 1 81.7925 40.0248 2.72358
9486 1 84.1958 38.7925 3.13789
6926 1 84.8016 40.0206 0.817396
8243 2 87.3037 40.8327 0.41528
3224 1 84.6244 36.5406 1.78742
5989 1 86.2213 38.2911 1.52627
1430 2 86.4184 40.7314 2.69814
7778 1 86.0132 36.9244 3.75804
4055 1 90.1964 37.5102 3.79901
5894 2 88.527 38.8047 2.1892
1096 1 92.1417 38.8301 2.82892
1324 2 90.3767 40.0867 1.15204
4664 1 90.9976 37.6249 1.19304
3306 1 88.8251 36.606 0.118697
7009 1 93.3893 36.6642 2.31444
9990 1 94.843 37.7978 3.42236
6210 1 93.9476 39.652 1.65306
7838 1 94.0308 40.3939 4.04251
6122 2 96.8375 38.4919 1.96134
7636 1 95.0452 36.856 0.582497
5755 2 99.8603 38.3703 0.691686
2679 1 99.0022 37.9456 3.2073
10173 1 101.7475 36.509 1.90332
5940 2 100.5734 39.9496 1.81416
9082 2 101.7224 36.9865 4.48332
6807 2 98.2375 40.733 2.96243
2803 2 102.1698 38.6811 3.10627
154 2 105.6406 38.9229 1.95745
9882 2 103.6679 38.8201 0.483954
9185 1 104.7059 37.1104 3.33522
861 1 109.6274 37.4083 3.68089
7939 2 107.5536 39.6662 4.51521
8110 1 110.5644 38.0819 1.74861
3544 2 107.6247 37.9994 2.38303
3612 1 109.2703 40.2692 2.82065
10313 1 108.6905 36.9253 0.0333458
6694 1 58.77392 41.7693 1.20947
8347 1 57.446905 45.0012 3.58293
6931 1 56.625021 42.6271 4.13267
2358 1 60.8816 42.5759 1.71697
10848 2 59.09991 42.6857 3.68512
617 1 58.98911 44.1271 0.16779
3092 1 56.640877 43.065 1.72522
6861 1 63.54147 41.5985 1.73273
3738 1 61.63046 42.358 4.07539
9439 1 63.78551 44.5435 3.0721
4311 2 65.50692 42.3896 3.0456
2939 1 61.82396 44.5838 1.67451
8970 1 68.2363 41.1479 1.36648
220 2 67.0751 44.0381 2.75589
1803 2 68.8021 42.5404 3.48754
2936 2 66.05574 42.7798 0.843298
8936 2 68.4763 43.575 0.892244
4065 1 70.9103 40.9513 2.86581
9179 1 73.2422 42.1049 2.14062
5481 1 71.4144 42.6986 0.870147
6653 1 73.7099 44.2069 1.30508
1804 2 72.5078 44.7925 3.54907
8268 2 70.2122 44.6147 2.31161
2838 2 78.7577 43.6995 2.94928
10412 1 75.586 42.3718 3.00975
478 2 77.6395 44.6359 0.819696
6604 1 75.4675 44.931 2.87196
409 2 77.0474 43.9077 4.41725
9833 1 78.1052 41.0867 2.90526
10897 2 75.2553 41.9739 0.141078
10449 2 77.5382 42.3388 0.919544
5103 2 80.0869 41.8424 1.52033
2261 1 82.8702 43.9231 3.11679
5491 2 80.8241 42.0539 3.97748
2360 2 80.7786 44.5074 2.09284
1901 1 82.1692 43.1988 0.0969526
3441 1 84.0632 40.9854 4.08203
1422 1 87.5446 43.2415 0.637361
8773 2 83.7692 41.838 1.84857
1717 2 85.8302 43.0624 2.45355
10409 2 87.409 44.7468 4.36331
7129 1 86.3206 45.2848 1.67434
5055 1 84.8533 45.2291 3.58809
6433 1 84.1708 44.5684 0.385056
10615 1 92.296 41.435 2.53223
9844 2 90.8155 43.3449 3.7505
4026 2 90.8561 43.2622 1.10183
9547 1 90.8368 40.8678 4.28817
6767 1 92.3576 44.8703 0.151884
2303 2 88.4706 42.3574 4.43485
8756 2 88.8479 41.7374 2.12773
847 1 88.853 44.3531 2.19384
10256 1 95.6229 41.2396 1.82604
10124 2 96.7615 43.8752 2.54691
5029 1 94.1668 43.4245 1.22346
8075 2 96.0064 45.0438 0.69367
1353 1 93.9094 42.8096 3.51634
436 2 96.9079 42.3559 4.49269
10024 2 98.9961 40.8987 0.510521
5371 2 100.945 42.2652 3.47957
147 2 100.2779 43.0993 0.179428
922 2 98.5757 44.8717 0.310867
4937 1 100.6794 44.7886 2.79779
7625 2 98.6489 42.7512 1.78104
344 2 98.8233 43.3765 4.24543
2632 2 103.839 41.3167 1.33268
7437 2 102.1179 42.8881 1.72039
6597 1 105.7228 40.9548 3.25773
841 1 103.0322 45.1692 2.82255
10888 1 103.0087 40.9798 3.53138
6093 2 106.2201 41.0914 0.674086
4029 2 103.1215 43.3359 4.51021
1305 2 105.4576 43.2592 3.00583
3736 2 103.986 43.6134 0.524678
5058 1 109.1076 42.0621 1.14589
2 2 106.393 43.3207 0.742049
4515 1 109.5738 44.6579 4.13342
10322 1 107.8415 42.1839 3.00581
9023 2 107.6851 44.7188 2.44863
5620 1 109.4079 45.11 0.433354
2156 1 58.26146 47.4804 3.38162
7699 2 57.229336 45.7154 0.594832
1903 1 59.4214 48.4396 1.37299
10380 2 56.933444 47.9278 0.444038
7964 2 56.748323 49.3811 3.90385
9908 1 59.21981 49.8986 3.25309
5625 2 59.55686 45.801 2.11882
2013 2 61.11808 46.7431 0.528748
7722 1 63.58848 47.1129 1.42803
7591 1 64.48719 46.21 4.5358
7895 1 62.06854 49.1222 2.10056
7438 1 61.54924 46.955 3.24448
536 1 63.77562 48.8431 3.62713
6427 1 64.70936 49.3818 1.1729
5000 1 66.6421 48.241 0.00686213
9668 1 68.4407 45.9587 0.426605
2722 1 67.3275 48.75 2.16259
8669 1 67.3754 48.6076 4.46752
7825 2 68.5048 46.0558 3.35622
7654 1 65.79172 45.5386 0.584545
8608 1 65.73929 46.4893 2.7305
3658 1 73.6136 46.5254 1.77687
6170 1 71.7733 47.2719 3.0363
10501 1 72.1479 48.7007 1.12434
10772 2 70.0908 49.071 2.61117
901 2 70.6932 46.7984 0.710105
2593 1 74.5472 48.8117 0.357464
10201 1 77.85 46.4626 2.61962
5269 2 75.0689 48.2633 3.51528
5765 2 76.948 48.8672 1.04813
7659 2 77.6514 48.6995 3.51112
3688 2 80.0988 45.9887 3.83989
9154 1 82.3824 46.4183 3.5647
10595 2 79.2268 48.9998 0.82576
10633 2 81.0028 48.4607 2.69543
5864 1 82.591 46.7066 1.33109
8295 2 80.1069 46.3172 0.588113
1246 2 83.3266 49.1119 2.85651
6128 2 81.578 49.3044 0.692551
1984 2 88.0561 49.3275 3.45368
658 2 87.1481 47.1719 4.42478
1708 2 85.1861 47.7473 2.50229
6778 1 87.2393 48.3264 1.26332
5582 1 90.0758 46.4554 4.1302
2424 1 89.1554 46.4628 1.13266
2192 2 92.7342 47.9742 4.08764
3194 1 90.7312 48.9701 2.75854
2457 1 91.7812 45.9822 2.56777
2064 1 91.1683 47.5227 0.0889528
9778 1 89.3386 49.1292 0.966438
2059 2 96.7465 46.224 3.97411
2963 2 93.5034 47.6807 1.53735
6380 1 95.1806 48.1898 3.87674
2768 2 96.0035 47.41 1.65465
7987 2 94.4428 45.5267 2.58916
2885 2 98.8112 46.2373 2.00285
6064 2 97.5464 49.171 2.81682
654 2 99.1429 48.1134 4.22196
10493 1 99.7976 48.5685 1.92101
8362 2 99.3375 45.8288 4.51742
1466 1 101.7802 48.2542 3.2085
6577 1 101.2546 45.9005 0.729428
4939 2 97.5179 49.3698 0.386208
8787 1 104.2321 47.3342 3.88186
10927 2 106.1576 48.0494 2.50566
5335 1 102.6615 47.8558 1.14015
4746 1 105.4179 45.5618 1.75504
10041 2 109.9472 46.6044 2.31123
5649 2 109.95 49.4093 2.17553
4722 2 108.2068 47.8821 1.01804
3657 2 107.4144 46.328 4.2477
6553 1 108.7012 48.6833 4.16701
8831 1 58.14623 53.0133 2.75627
6185 1 60.29262 50.8957 1.31317
1841 1 60.46046 52.0621 3.32414
6407 2 57.60854 50.9185 1.61873
7440 2 61.06314 53.2061 0.57861
5413 2 62.06012 54.0188 2.72042
3815 1 62.99572 51.1187 3.45141
2798 1 63.89682 53.2136 1.32679
2154 1 62.97246 50.9414 0.831645
4097 2 65.23077 53.9865 3.54758
9967 2 69.463 53.1717 1.99695
7243 2 68.3361 50.8016 1.80203
3517 1 65.8021 51.1983 2.34366
9112 1 67.8887 52.5161 0.269908
9080 2 67.6581 52.6734 3.11239
6351 1 70.5607 51.5113 3.80477
9348 1 72.8118 49.9993 3.37622
7551 1 72.4188 53.5435 1.43375
10466 1 74.1983 52.8185 3.38987
4083 1 71.9825 51.0666 1.39323
4420 1 74.5907 50.9875 1.30408
396 2 77.7152 51.0889 0.103391
7828 2 76.4635 52.3766 1.72279
5217 1 76.3389 53.6244 4.35196
9271 1 75.5344 50.9076 3.64331
1189 2 78.0703 50.8428 2.68642
8203 2 78.9313 52.7487 1.3586
10299 2 81.2426 50.7124 2.33294
9521 1 83.4485 51.6955 3.7175
8721 2 80.7718 52.2251 3.93299
9267 2 80.4009 54.2972 0.458983
5782 2 83.43 51.5003 1.37359
2703 2 82.1499 53.2885 1.98583
2814 2 85.4108 50.0797 2.01833
2717 1 87.6125 50.8777 1.23144
6270 1 84.5305 54.3055 3.26618
1118 2 86.8233 54.3029 3.73328
7409 2 85.9553 52.521 2.20087
1591 2 87.0878 51.7595 4.10434
7645 1 91.9463 50.2173 0.502307
3616 2 89.8041 51.3243 0.0529772
6248 2 88.8376 53.689 1.95884
2683 1 91.2456 53.4998 1.04584
1179 1 92.0534 52.289 2.98884
4240 1 89.4967 51.2391 3.05234
9081 2 96.2467 53.6071 1.57717
4214 1 95.8792 50.6152 1.61749
10916 1 93.3532 50.1122 2.64268
9287 1 94.9798 52.2996 3.93428
9052 2 93.6558 52.2993 0.877001
2993 1 101.4254 50.5763 1.62161
5847 1 101.7506 50.7268 4.18664
8057 1 100.3986 52.6662 3.37704
177 2 99.0479 51.1475 1.67936
6586 1 101.2657 52.7251 0.303065
8488 2 99.1943 50.5565 4.22388
1500 2 97.4381 51.9355 3.52199
4698 1 101.4622 54.3706 2.0531
2675 2 98.9794 53.8439 0.755891
7837 1 105.5592 53.7449 3.50279
1991 1 106.289 52.5006 1.46126
7664 1 104.2018 54.127 1.04219
3968 1 103.0013 52.4302 2.44562
5469 1 103.9455 50.0255 3.19241
3302 1 105.1886 50.3193 1.13209
846 2 108.9621 53.325 0.0122714
8300 2 108.0532 52.5984 3.22429
874 2 110.7118 51.6407 4.13695
10915 2 107.9446 50.1888 1.23461
9646 2 109.8856 54.2383 3.94026
2466 2 106.5038 50.621 3.41818
8750 2 110.2775 52.297 1.89948
8903 1 58.9144 3.13684 7.46391
209 1 60.82629 2.99896 4.55917
5925 1 57.63829 3.34592 5.30107
6342 2 58.09609 0.689736 8.41169
9485 2 59.42996 0.0176646 6.53661
4964 1 61.22645 3.46862 7.00043