LAMMPS (22 Dec 2022)
OMP_NUM_THREADS environment is not set. Defaulting to 1 thread. (src/comm.cpp:98)
  using 1 OpenMP thread(s) per MPI task
package omp 4
set 4 OpenMP thread(s) per MPI task
using multi-threaded neighbor list subroutines

# INITIALIZATION
dimension 3
boundary p p p
units metal
atom_style atomic
atom_modify map array

# ATOM DEFINITION
read_data	DosFases_Pd.lmp
Reading data file ...
  orthogonal box = (0 0 0) to (113.92 57.46 57.46)
  1 by 1 by 1 MPI processor grid
  reading atoms ...
  21952 atoms
  read_data CPU = 0.048 seconds

# DEFINE INTERATOMIC POTENTIAL
pair_style eam
pair_coeff * * Pd_u3.eam
Reading eam potential file Pd_u3.eam with DATE: 2007-06-11
neigh_modify delay 10 check yes

#Langevin random seed
variable r equal 57085
variable t equal 1350
variable d equal 1

# initialize
velocity all create $t 28459 rot yes dist gaussian mom yes
velocity all create 1350 28459 rot yes dist gaussian mom yes
reset_timestep 0

# fixes
fix     1 all npt temp $t $t $d iso 1. 1. 1. pchain 8 drag 1.0
fix     1 all npt temp 1350 $t $d iso 1. 1. 1. pchain 8 drag 1.0
fix     1 all npt temp 1350 1350 $d iso 1. 1. 1. pchain 8 drag 1.0
fix     1 all npt temp 1350 1350 1 iso 1. 1. 1. pchain 8 drag 1.0

#
timestep 2e-3

# output
#                    1    2    3  4  5     6   7  8  9  10 11 12
thermo_style  custom step temp pe ke press vol lx ly lz xy xz yz
thermo  100

restart 2000000 restart.one restart.two

dump    	3 all atom 100000 Dump_Au.lmp

# execution
run 	 2000000
No /omp style for force computation currently active
Neighbor list info ...
  update: every = 1 steps, delay = 10 steps, check = yes
  max neighbors/atom: 2000, page size: 100000
  master list distance cutoff = 7.3
  ghost atom cutoff = 7.3
  binsize = 3.65, bins = 32 16 16
  1 neighbor lists, perpetual/occasional/extra = 1 0 0
  (1) pair eam, perpetual
      attributes: half, newton on, omp
      pair build: half/bin/atomonly/newton/omp
      stencil: half/bin/3d
      bin: standard
Per MPI rank memory allocation (min/avg/max) = 21.46 | 21.46 | 21.46 Mbytes
   Step          Temp          PotEng         KinEng         Press          Volume           Lx             Ly             Lz             Xy             Xz             Yz      
         0   1350          -76178.244      3830.4757      79887.616      376124.15      113.92         57.46          57.46          0              0              0            
       100   1553.949      -77167.017      4409.1585     -14547.867      393605.7       115.65827      58.336765      58.336765      0              0              0            
       200   1613.0113     -77402.776      4576.7413      655.74787      385020.46      114.81118      57.9095        57.9095        0              0              0            
       300   1585.8777     -77369.23       4499.7525     -1560.6185      383889.71      114.69867      57.852754      57.852754      0              0              0            
       400   1563.8164     -77351.368      4437.1563      1406.5354      381320.2       114.44219      57.723389      57.723389      0              0              0            
       500   1544.6437     -77341.281      4382.7556     -1522.4731      380476.16      114.35769      57.680768      57.680768      0              0              0            
       600   1557.8932     -77423.904      4420.3497     -1370.5158      376922.28      114.00052      57.500614      57.500614      0              0              0            
       700   1595.5334     -77583.3        4527.1497     -4028.0772      371984.32      113.5005       57.24841       57.24841       0              0              0            
       800   1636.5657     -77765.403      4643.5742     -2033.4474      364868.18      112.77207      56.880999      56.880999      0              0              0            
       900   1676.0237     -77937.484      4755.5318     -826.74499      360524.33      112.32276      56.654369      56.654369      0              0              0            
      1000   1706.8667     -78088.493      4843.0455      28.489996      357733.29      112.03215      56.507792      56.507792      0              0              0            
      1100   1687.5289     -78099.299      4788.1766     -117.96058      356048.57      111.85601      56.418945      56.418945      0              0              0            
      1200   1699.5488     -78200.631      4822.2819      362.37405      354661.94      111.71061      56.345609      56.345609      0              0              0            
      1300   1678.9854     -78208.876      4763.9355     -75.561369      354854.94      111.73087      56.355828      56.355828      0              0              0            
      1400   1654.9644     -78203.943      4695.7786     -451.31779      355218.11      111.76897      56.375046      56.375046      0              0              0            
      1500   1631.6229     -78198.615      4629.5496      446.70366      355270.86      111.77451      56.377837      56.377837      0              0              0            
      1600   1613.5964     -78205.125      4578.4014      480.36749      355274.1       111.77485      56.378009      56.378009      0              0              0            
      1700   1603.6392     -78231.953      4550.1489     -1146.4903      355473.2       111.79572      56.388538      56.388538      0              0              0            
      1800   1616.468      -78321.942      4586.5493      144.11681      354709.44      111.7156       56.348124      56.348124      0              0              0            
      1900   1616.5591     -78375.915      4586.8076     -388.61965      354372.48      111.68021      56.330276      56.330276      0              0              0            
      2000   1611.3718     -78414.063      4572.0893     -1109.0458      354050.01      111.64633      56.313184      56.313184      0              0              0            
      2100   1614.7017     -78476.954      4581.5375      307.86122      353175.8       111.55436      56.266797      56.266797      0              0              0            
      2200   1598.6877     -78485.012      4536.0996      170.26765      353060.83      111.54225      56.260691      56.260691      0              0              0            
      2300   1605.6337     -78557.531      4555.8082      668.2238       352337.28      111.466        56.222232      56.222232      0              0              0            
      2400   1596.7722     -78585.492      4530.6647      595.79076      352017.34      111.43226      56.205209      56.205209      0              0              0            
      2500   1585.3138     -78605.19       4498.1527      663.20373      351915.59      111.42152      56.199793      56.199793      0              0              0            
      2600   1592.7133     -78676.826      4519.1479      17.646285      351756.31      111.40471      56.191313      56.191313      0              0              0            
      2700   1582.5294     -78698.17       4490.2521     -587.96582      351836.92      111.41321      56.195605      56.195605      0              0              0            
      2800   1584.5052     -78752.503      4495.8582     -756.64212      351712.23      111.40005      56.188966      56.188966      0              0              0            
      2900   1553.7356     -78712.455      4408.553       151.16967      351825.04      111.41196      56.194973      56.194973      0              0              0            
      3000   1540.2244     -78718.988      4370.2164      968.91144      351759.98      111.40509      56.191509      56.191509      0              0              0            
      3100   1530.8459     -78735.669      4343.6061      84.917912      351916.53      111.42162      56.199843      56.199843      0              0              0            
      3200   1517.1083     -78737.951      4304.6271      3.5452416      352019.99      111.43254      56.20535       56.20535       0              0              0            
      3300   1515.5969     -78772.586      4300.3388      214.74202      351890.51      111.41887      56.198458      56.198458      0              0              0            
      3400   1518.286      -78818.08       4307.9686     -890.74041      351877.45      111.41749      56.197763      56.197763      0              0              0            
      3500   1502.5008     -78810.72       4263.1798     -137.82903      351586.74      111.3868       56.182282      56.182282      0              0              0            
      3600   1509.9133     -78868.396      4284.2121      415.58674      351105.22      111.33593      56.156622      56.156622      0              0              0            
      3700   1525.478      -78949.496      4328.375      -595.74469      350822.12      111.306        56.141525      56.141525      0              0              0            
      3800   1526.2557     -78989.984      4330.5819      202.81209      350293.55      111.25007      56.113315      56.113315      0              0              0            
      3900   1502.3233     -78959.631      4262.6763      513.80742      350200.8       111.24025      56.108362      56.108362      0              0              0            
      4000   1504.6571     -79002.852      4269.2981     -172.36083      350049.55      111.22423      56.100284      56.100284      0              0              0            
      4100   1503.4334     -79035.635      4265.8259      346.58702      349772.83      111.19491      56.085497      56.085497      0              0              0            
      4200   1497.9686     -79055.225      4250.3204     -459.92859      349925.84      111.21113      56.093674      56.093674      0              0              0            
      4300   1487.3124     -79059.75       4220.0844      772.5909       349693.55      111.18651      56.081259      56.081259      0              0              0            
      4400   1487.5156     -79093.971      4220.661       1096.3721      349474.6       111.1633       56.069552      56.069552      0              0              0            
      4500   1471.4327     -79081.48       4175.0277     -1027.0837      350178.58      111.23789      56.107176      56.107176      0              0              0            
      4600   1475.4878     -79124.381      4186.5334      1976.5175      349444.12      111.16007      56.067922      56.067922      0              0              0            
      4700   1468.0417     -79134.021      4165.406      -245.39614      349990.61      111.21799      56.097135      56.097135      0              0              0            
      4800   1460.9876     -79142.887      4145.3907     -172.55245      349814.71      111.19935      56.087735      56.087735      0              0              0            
      4900   1453.163      -79148.98       4123.1893     -49.903727      349875.32      111.20577      56.090974      56.090974      0              0              0            
      5000   1456.176      -79185.306      4131.7383      582.199        349388.47      111.15417      56.064946      56.064946      0              0              0            
      5100   1450.8083     -79197.138      4116.5082     -685.50451      349517.59      111.16786      56.071851      56.071851      0              0              0            
      5200   1467.9216     -79272.395      4165.0654      134.8653       348932.57      111.1058       56.040549      56.040549      0              0              0            
      5300   1464.7034     -79291.196      4155.9339     -234.22605      348877.1       111.09991      56.03758       56.03758       0              0              0            
      5400   1462.8827     -79313.338      4150.7679     -889.79307      348819.98      111.09385      56.034521      56.034521      0              0              0            
      5500   1443.2466     -79284.783      4095.0526      1383.9596      348370.49      111.04611      56.010442      56.010442      0              0              0            
      5600   1449.9076     -79330.111      4113.9526      229.02279      348392.54      111.04845      56.011624      56.011624      0              0              0            
      5700   1449.7981     -79354.867      4113.6417     -1185.2771      348614.49      111.07203      56.023516      56.023516      0              0              0            
      5800   1437.9697     -79346.065      4080.0799      17.491362      348410.74      111.05039      56.012599      56.012599      0              0              0            
      5900   1436.439      -79365.544      4075.7367      493.56204      348236.49      111.03187      56.00326       56.00326       0              0              0            
      6000   1434.6005     -79383.558      4070.5203     -811.61159      348594.58      111.06992      56.022449      56.022449      0              0              0            
      6100   1422.9238     -79372.952      4037.389       920.45904      348260.83      111.03446      56.004564      56.004564      0              0              0            
      6200   1422.7297     -79393.646      4036.8382     -430.00609      348555.42      111.06576      56.020351      56.020351      0              0              0            
      6300   1413.7475     -79388.17       4011.3523     -133.75125      348559.67      111.06621      56.020579      56.020579      0              0              0            
      6400   1414.3929     -79409.183      4013.1836      409.76783      348355.29      111.0445       56.009627      56.009627      0              0              0            
      6500   1411.418      -79419.423      4004.7424      69.95337       348401.24      111.04938      56.01209       56.01209       0              0              0            
      6600   1414.469      -79446.47       4013.3995     -35.989745      348183.59      111.02625      56.000424      56.000424      0              0              0            
      6700   1413.3916     -79462.346      4010.3425      400.13508      347947.8       111.00118      55.98778       55.98778       0              0              0            
      6800   1416.3896     -79489.945      4018.849       49.930642      347778.13      110.98314      55.978678      55.978678      0              0              0            
      6900   1427.4275     -79539.976      4050.1676     -1147.2054      347842.53      110.98999      55.982133      55.982133      0              0              0            
      7000   1401.2755     -79484.44       3975.9643      478.46384      347591.24      110.96325      55.968649      55.968649      0              0              0            
      7100   1416.9387     -79546.644      4020.407       376.34888      347363.2       110.93898      55.956407      55.956407      0              0              0            
      7200   1404.0099     -79527.833      3983.7228     -816.57833      347638.33      110.96826      55.971176      55.971176      0              0              0            
      7300   1412.1784     -79568.476      4006.9         669.86228      347124.63      110.91358      55.943593      55.943593      0              0              0            
      7400   1400.6607     -79553.155      3974.2199     -859.15701      347610.43      110.96529      55.969679      55.969679      0              0              0            
      7500   1405.4165     -79582.789      3987.7141      299.6932       347329.24      110.93537      55.954583      55.954583      0              0              0            
      7600   1400.665      -79585.31       3974.2321     -129.56751      347460.88      110.94938      55.961651      55.961651      0              0              0            
      7700   1386.5139     -79560.548      3934.0799      128.44682      347512.19      110.95484      55.964406      55.964406      0              0              0            
      7800   1387.3508     -79577.136      3936.4544      754.28488      347396.22      110.9425       55.958179      55.958179      0              0              0            
      7900   1382.0583     -79575.546      3921.4376     -598.62951      347642.62      110.96872      55.971406      55.971406      0              0              0            
      8000   1384.3545     -79594.173      3927.9528     -297.23898      347526.68      110.95638      55.965183      55.965183      0              0              0            
      8100   1380.5787     -79595.379      3917.2394      475.04855      347294.54      110.93167      55.95272       55.95272       0              0              0            
      8200   1385.7333     -79621.828      3931.8649     -862.33835      347412.78      110.94426      55.959069      55.959069      0              0              0            
      8300   1381.2229     -79621.506      3919.0673     -68.07443       347103.19      110.91129      55.942442      55.942442      0              0              0            
      8400   1385.4862     -79646.199      3931.1639      194.55114      347007.93      110.90115      55.937324      55.937324      0              0              0            
      8500   1399.9198     -79700.044      3972.1177     -661.10858      346938.36      110.89373      55.933585      55.933585      0              0              0            
      8600   1373.3874     -79638.136      3896.8348      836.1495       346813.13      110.88039      55.926854      55.926854      0              0              0            
      8700   1389.5261     -79695.54       3942.6267     -324.95927      346834.47      110.88266      55.928001      55.928001      0              0              0            
      8800   1390.4758     -79709.664      3945.3212     -955.12714      346919.39      110.89171      55.932566      55.932566      0              0              0            
      8900   1386.8939     -79711.688      3935.1582      809.59764      346474.27      110.84427      55.908634      55.908634      0              0              0            
      9000   1368.6551     -79672.146      3883.4074     -662.17931      346960.06      110.89605      55.934751      55.934751      0              0              0            
      9100   1381.4765     -79719.309      3919.787       218.24835      346690.31      110.8673       55.920252      55.920252      0              0              0            
      9200   1370.5078     -79699.141      3888.6643     -196.92582      346898.35      110.88947      55.931435      55.931435      0              0              0            
      9300   1376.4622     -79726.99       3905.5593      809.93425      346626.4       110.86049      55.916815      55.916815      0              0              0            
      9400   1364.465      -79703.103      3871.5187     -482.58662      347016.09      110.90202      55.937762      55.937762      0              0              0            
      9500   1376.8092     -79746.788      3906.5438      8.5868527      346774.63      110.87629      55.924785      55.924785      0              0              0            
      9600   1379.6545     -79763.873      3914.6171      447.81991      346593.13      110.85694      55.915026      55.915026      0              0              0            
      9700   1367.0711     -79737.353      3878.9132     -429.00865      346771         110.8759       55.92459       55.92459       0              0              0            
      9800   1371.1919     -79757.635      3890.6055     -226.60353      346581.61      110.85571      55.914407      55.914407      0              0              0            
      9900   1380.8443     -79794.59       3917.9931      1035.4935      346123.59      110.80686      55.889765      55.889765      0              0              0            
     10000   1369.4773     -79772.89       3885.7404     -220.57243      346439.8       110.84059      55.90678       55.90678       0              0              0            
     10100   1372.8518     -79792.287      3895.3152     -429.01414      346349.34      110.83094      55.901913      55.901913      0              0              0            
     10200   1374.5288     -79806.456      3900.0734     -92.885394      346237.87      110.81905      55.895915      55.895915      0              0              0            
     10300   1367.3393     -79795.228      3879.6741      240.45628      346180.53      110.81293      55.89283       55.89283       0              0              0            
     10400   1371.5095     -79816.278      3891.5067     -203.91653      346221.75      110.81733      55.895048      55.895048      0              0              0            
     10500   1380.2629     -79850.278      3916.3435     -574.04496      346259.38      110.82135      55.897073      55.897073      0              0              0            
     10600   1364.9402     -79815.845      3872.8669      144.31509      346237.75      110.81904      55.895909      55.895909      0              0              0            
     10700   1366.1672     -79827.83       3876.3485     -620.7611       346349.58      110.83097      55.901926      55.901926      0              0              0            
     10800   1364.0749     -79830.388      3870.4117      271.97612      346192.49      110.81421      55.893473      55.893473      0              0              0            
     10900   1362.4619     -79833.65       3865.8349      182.45848      346248.4       110.82017      55.896482      55.896482      0              0              0            
     11000   1357.2435     -79825.96       3851.0283     -254.45707      346337.6       110.82969      55.901281      55.901281      0              0              0            
     11100   1368.0053     -79863.266      3881.5638      878.16552      346008.93      110.79462      55.883593      55.883593      0              0              0            
     11200   1356.2568     -79837.291      3848.2286     -474.58742      346278.52      110.82339      55.898103      55.898103      0              0              0            
     11300   1369.9289     -79883.24       3887.0217      874.20009      345797.75      110.77207      55.872221      55.872221      0              0              0            
     11400   1361.4336     -79867.649      3862.9172     -246.26451      346017.48      110.79553      55.884053      55.884053      0              0              0            
     11500   1367.4516     -79893.03       3879.9927     -111.57428      345942.75      110.78756      55.88003       55.88003       0              0              0            
     11600   1366.1631     -79897.468      3876.3369      110.58314      345794.59      110.77174      55.872051      55.872051      0              0              0            
     11700   1369.355      -79914.783      3885.3935     -551.381        345911.99      110.78427      55.878373      55.878373      0              0              0            
     11800   1365.7359     -79912.624      3875.1247      142.82676      345742.28      110.76615      55.869233      55.869233      0              0              0            
     11900   1360.1944     -79904.442      3859.4013      30.096261      345787.23      110.77095      55.871655      55.871655      0              0              0            
     12000   1353.8555     -79894.001      3841.4154      994.01778      345642.12      110.75545      55.863838      55.863838      0              0              0            
     12100   1365.4218     -79934.199      3874.2333      52.864368      345780.87      110.77027      55.871312      55.871312      0              0              0            
     12200   1353.0852     -79906.02       3839.2296     -169.97985      345952.1       110.78855      55.880533      55.880533      0              0              0            
     12300   1365.4198     -79946.806      3874.2276      927.5681       345615.81      110.75264      55.86242       55.86242       0              0              0            
     12400   1355.0898     -79923.516      3844.9175     -57.972673      345829.34      110.77545      55.873923      55.873923      0              0              0            
     12500   1360.5861     -79944.908      3860.5125     -534.36941      345863.2       110.77906      55.875746      55.875746      0              0              0            
     12600   1360.9058     -79951.18       3861.4199     -15.328502      345747.71      110.76673      55.869526      55.869526      0              0              0            
     12700   1354.2417     -79936.985      3842.511      -254.30035      345816.16      110.77404      55.873212      55.873212      0              0              0            
     12800   1356.2774     -79947.105      3848.2872     -196.95059      345733.52      110.76522      55.868762      55.868762      0              0              0            
     12900   1356.2712     -79950.759      3848.2697      321.05105      345542.47      110.74481      55.858469      55.858469      0              0              0            
     13000   1361.0374     -79967.871      3861.793      -394.47179      345644.79      110.75574      55.863982      55.863982      0              0              0            
     13100   1355.3876     -79955.888      3845.7624      69.588245      345585.26      110.74938      55.860775      55.860775      0              0              0            
     13200   1353.1662     -79953.684      3839.4595     -388.78841      345619.99      110.75309      55.862646      55.862646      0              0              0            
     13300   1354.6592     -79962.041      3843.6958      312.30497      345428.08      110.73259      55.852304      55.852304      0              0              0            
     13400   1361.1291     -79984.8        3862.0532      130.63974      345413.33      110.73101      55.851509      55.851509      0              0              0            
     13500   1349.9579     -79957.725      3830.3562     -138.90088      345642.58      110.7555       55.863863      55.863863      0              0              0            
     13600   1354.0963     -79974.155      3842.0986      186.44627      345553.15      110.74595      55.859044      55.859044      0              0              0            
     13700   1355.651      -79982.863      3846.5099      290.8409       345446.88      110.7346       55.853317      55.853317      0              0              0            
     13800   1350.6367     -79972.876      3832.2823     -564.18115      345699.82      110.76162      55.866946      55.866946      0              0              0            
     13900   1355.0075     -79989.392      3844.684       430.4003       345466.21      110.73666      55.854359      55.854359      0              0              0            
     14000   1363.7436     -80018.199      3869.4716      425.71855      345403.84      110.73         55.850998      55.850998      0              0              0            
     14100   1340.8451     -79957.402      3804.4999     -290.34814      345720.22      110.7638       55.868045      55.868045      0              0              0            
     14200   1359.8632     -80014.096      3858.4614      421.57288      345294.47      110.71831      55.845102      55.845102      0              0              0            
     14300   1354.1993     -80000.916      3842.3907     -678.61323      345542.65      110.74483      55.858479      55.858479      0              0              0            
     14400   1349.9448     -79991.804      3830.319      -111.65591      345399.02      110.72948      55.850738      55.850738      0              0              0            
     14500   1351.4225     -79999.221      3834.512       345.53461      345309.78      110.71995      55.845928      55.845928      0              0              0            
     14600   1356.4331     -80016.642      3848.729      -119.32829      345348.14      110.72405      55.847995      55.847995      0              0              0            
     14700   1360.5075     -80031.555      3860.2897     -403.56165      345433.16      110.73313      55.852578      55.852578      0              0              0            
     14800   1348.4466     -80000.92       3826.068       1001.7524      345188.53      110.70698      55.83939       55.83939       0              0              0            
     14900   1359.3307     -80035.188      3856.9507      201.78846      345222.33      110.7106       55.841213      55.841213      0              0              0            
     15000   1359.8133     -80041.183      3858.3199     -581.70604      345398.86      110.72947      55.850729      55.850729      0              0              0            
     15100   1348.8778     -80015.227      3827.2917      1129.9842      345083.24      110.69573      55.833712      55.833712      0              0              0            
     15200   1354.495      -80035.588      3843.2298     -716.36268      345417.73      110.73148      55.851747      55.851747      0              0              0            
     15300   1355.1296     -80041.298      3845.0305      71.362635      345278.37      110.71659      55.844234      55.844234      0              0              0            
     15400   1352.4238     -80036.954      3837.3529      147.11278      345264.56      110.71511      55.84349       55.84349       0              0              0            
     15500   1356.033      -80050.008      3847.5936     -381.97433      345305.17      110.71945      55.845679      55.845679      0              0              0            
     15600   1353.9602     -80047.141      3841.7124      31.860622      345246.45      110.71318      55.842513      55.842513      0              0              0            
     15700   1353.6697     -80049.491      3840.8881      236.26491      345214.24      110.70973      55.840777      55.840777      0              0              0            
     15800   1352.108      -80048.343      3836.4569     -612.16985      345324.21      110.72149      55.846705      55.846705      0              0              0            
     15900   1347.8123     -80038.95       3824.2684      473.23681      345140.17      110.70181      55.836782      55.836782      0              0              0            
     16000   1356.6271     -80066.59       3849.2794      412.66156      345058.51      110.69308      55.832379      55.832379      0              0              0            
     16100   1342.653      -80029.666      3809.6295      7.8814387      345233.22      110.71176      55.8418        55.8418        0              0              0            
     16200   1354.6775     -80066.091      3843.7475      283.65048      345059.18      110.69315      55.832415      55.832415      0              0              0            
     16300   1363.5495     -80093.974      3868.9208     -588.30166      345113.34      110.69895      55.835336      55.835336      0              0              0            
     16400   1359.5644     -80086.397      3857.6136     -848.7359       345200.35      110.70825      55.840028      55.840028      0              0              0            
     16500   1359.8443     -80090.699      3858.4079      384.40299      344963.97      110.68297      55.827279      55.827279      0              0              0            
     16600   1359.1852     -80092.338      3856.5379     -1046.2056      345226.72      110.71107      55.84145       55.84145       0              0              0            
     16700   1357.2919     -80090.587      3851.1657     -53.493102      345071.12      110.69443      55.833058      55.833058      0              0              0            
     16800   1360.04       -80102.387      3858.963       107.75967      344955.4       110.68206      55.826816      55.826816      0              0              0            
     16900   1347.31       -80070.106      3822.8432      894.94264      345017.85      110.68874      55.830186      55.830186      0              0              0            
     17000   1354.4161     -80094.111      3843.006      -274.7197       345161.44      110.70409      55.837929      55.837929      0              0              0            
     17100   1348.791      -80081.955      3827.0455      517.14702      344967.58      110.68336      55.827473      55.827473      0              0              0            
     17200   1342.8857     -80068.605      3810.2898      294.12384      345074.82      110.69483      55.833258      55.833258      0              0              0            
     17300   1351.2433     -80094.97       3834.0033     -457.30014      345070.3       110.69434      55.833014      55.833014      0              0              0            
     17400   1359.924      -80122.353      3858.634      -3.2925905      344863.9       110.67227      55.82188       55.82188       0              0              0            
     17500   1351.0205     -80100.201      3833.3714      60.607201      344983.58      110.68507      55.828337      55.828337      0              0              0            
     17600   1356.0534     -80117.841      3847.6516     -68.680738      344885.87      110.67462      55.823066      55.823066      0              0              0            
     17700   1341.382      -80079.409      3806.0231     -141.30844      345085.21      110.69594      55.833819      55.833819      0              0              0            
     17800   1352.5633     -80113.668      3837.7488      537.53754      344793.41      110.66473      55.818077      55.818077      0              0              0            
     17900   1348.4183     -80104.649      3825.9877     -247.59153      344965.95      110.68318      55.827386      55.827386      0              0              0            
     18000   1346.6471     -80101.904      3820.9622     -420.59328      345101.1       110.69764      55.834675      55.834675      0              0              0            
     18100   1348.57       -80108.599      3826.4183      1157.9518      344751.37      110.66023      55.815808      55.815808      0              0              0            
     18200   1354.447      -80126.815      3843.0937     -498.77529      345027.91      110.68981      55.830728      55.830728      0              0              0            
     18300   1354.4328     -80128.787      3843.0532     -131.0104       344977.97      110.68447      55.828034      55.828034      0              0              0            
     18400   1350.6607     -80120.288      3832.3503      327.83089      344864.48      110.67233      55.821911      55.821911      0              0              0            
     18500   1343.4219     -80102.001      3811.8111     -186.35325      345073.17      110.69465      55.833169      55.833169      0              0              0            
     18600   1361.2957     -80154.431      3862.5262      801.1671       344592.78      110.64326      55.807248      55.807248      0              0              0            
     18700   1349.1985     -80122.586      3828.2016     -1272.2415      345200.63      110.70828      55.840043      55.840043      0              0              0            
     18800   1351.5393     -80132.572      3834.8432      1323.3704      344612.42      110.64536      55.808308      55.808308      0              0              0            
     18900   1359.8202     -80158.89       3858.3393      5.7743419      344818.47      110.66741      55.819429      55.819429      0              0              0            
     19000   1353.84       -80144.693      3841.3712     -816.2105       344984.91      110.68521      55.828408      55.828408      0              0              0            
     19100   1360.3286     -80165.793      3859.7819      588.21331      344627.17      110.64694      55.809104      55.809104      0              0              0            
     19200   1355.093      -80153.638      3844.9267     -728.67382      344915.7       110.67781      55.824675      55.824675      0              0              0            
     19300   1360.8962     -80172.835      3861.3927      201.93959      344638.33      110.64813      55.809707      55.809707      0              0              0            
     19400   1364.2703     -80185.104      3870.9661     -1036.4644      344863.66      110.67224      55.821867      55.821867      0              0              0            
     19500   1356.4121     -80165.061      3848.6693     -678.93566      344871.38      110.67307      55.822284      55.822284      0              0              0            
     19600   1347.55       -80142.685      3823.524       1070.2254      344602.7       110.64432      55.807784      55.807784      0              0              0            
     19700   1358.8441     -80177.794      3855.5698      216.72539      344641.39      110.64846      55.809872      55.809872      0              0              0            
     19800   1349.7062     -80156.009      3829.6422     -205.02768      344773.06      110.66255      55.816978      55.816978      0              0              0            
     19900   1349.6864     -80160.242      3829.5858      925.38047      344555.13      110.63923      55.805216      55.805216      0              0              0            
     20000   1352.0314     -80170.862      3836.2395     -340.29274      344801.08      110.66555      55.81849       55.81849       0              0              0            
     20100   1354.5482     -80181.019      3843.3808     -215.86205      344744.96      110.65954      55.815462      55.815462      0              0              0            
     20200   1357.5689     -80191.791      3851.9516      289.61295      344656.02      110.65003      55.810662      55.810662      0              0              0            
     20300   1361.1935     -80204.586      3862.2361     -1156.9215      344827.87      110.66841      55.819936      55.819936      0              0              0            
     20400   1344.9908     -80161.823      3816.2628      674.80508      344570.08      110.64083      55.806023      55.806023      0              0              0            
     20500   1353.7716     -80190.22       3841.1774      1502.8368      344295.74      110.61146      55.791208      55.791208      0              0              0            
     20600   1347.8756     -80177.491      3824.4479     -1056.8663      344861.82      110.67205      55.821768      55.821768      0              0              0            
     20700   1343.2608     -80168.146      3811.3541      1681.486       344285.31      110.61034      55.790645      55.790645      0              0              0            
     20800   1354.533      -80203.691      3843.3378      223.3062       344486.7       110.6319       55.801521      55.801521      0              0              0            
     20900   1349.3487     -80192.818      3828.6277     -985.24821      344794.22      110.66481      55.81812       55.81812       0              0              0            
     21000   1352.9774     -80206.838      3838.9238      1055.6453      344346.32      110.61687      55.79394       55.79394       0              0              0            
     21100   1355.0348     -80216.277      3844.7614     -1143.7024      344826.61      110.66828      55.819868      55.819868      0              0              0            
     21200   1355.1339     -80219.475      3845.0428      399.50436      344432.96      110.62615      55.798619      55.798619      0              0              0            
     21300   1352.0758     -80213.282      3836.3656      322.24986      344555.86      110.63931      55.805255      55.805255      0              0              0            
     21400   1355.3267     -80224.607      3845.5898     -583.74775      344602.91      110.64434      55.807795      55.807795      0              0              0            
     21500   1364.828      -80254.311      3872.5487     -228.41391      344467.95      110.6299       55.800508      55.800508      0              0              0            
     21600   1348.9428     -80211.88       3827.476      -179.4183       344582         110.64211      55.806666      55.806666      0              0              0            
     21700   1346.0698     -80205.784      3819.3243      309.39416      344503.2       110.63367      55.802412      55.802412      0              0              0            
     21800   1362.3809     -80254.123      3865.6052      1005.9332      344182.97      110.59938      55.785116      55.785116      0              0              0            
     21900   1354.2081     -80233.236      3842.4159     -1768.5211      344792.67      110.66465      55.818037      55.818037      0              0              0            
     22000   1355.057      -80237.8        3844.8244      624.91721      344259.56      110.60758      55.789254      55.789254      0              0              0            
     22100   1354.3276     -80237.918      3842.7547     -82.563842      344418.04      110.62455      55.797813      55.797813      0              0              0            
     22200   1350.1643     -80227.98       3830.942      -314.75082      344509.92      110.63439      55.802774      55.802774      0              0              0            
     22300   1350.9744     -80232.618      3833.2406      797.62512      344247.48      110.60629      55.788601      55.788601      0              0              0            
     22400   1351.3357     -80236.271      3834.2655      81.564156      344425.93      110.6254       55.798239      55.798239      0              0              0            
     22500   1352.8045     -80243.421      3838.4331      309.65859      344326.29      110.61473      55.792858      55.792858      0              0              0            
     22600   1341.8281     -80215.931      3807.2889      39.97789       344529.86      110.63652      55.803851      55.803851      0              0              0            
     22700   1359.221      -80268.3        3856.6394      839.10343      344159.89      110.59691      55.783869      55.783869      0              0              0            
     22800   1354.2451     -80257.192      3842.5207     -1411.9328      344646.61      110.64902      55.810154      55.810154      0              0              0            
     22900   1348.1234     -80242.774      3825.1512      1015.8581      344238.07      110.60528      55.788093      55.788093      0              0              0            
     23000   1350.8107     -80253.133      3832.776       458.45341      344281.45      110.60993      55.790436      55.790436      0              0              0            
     23100   1358.141      -80276.315      3853.575      -736.49975      344463.93      110.62947      55.800291      55.800291      0              0              0            
     23200   1346.3322     -80245.23       3820.0687      527.74439      344326.39      110.61474      55.792863      55.792863      0              0              0            
     23300   1350.6644     -80259.933      3832.361       471.80642      344291.25      110.61098      55.790965      55.790965      0              0              0            
     23400   1344.4468     -80245.232      3814.719       445.77488      344329.9       110.61512      55.793053      55.793053      0              0              0            
     23500   1346.5933     -80253.562      3820.8096      677.14214      344269         110.6086       55.789764      55.789764      0              0              0            
     23600   1367.0357     -80313.581      3878.8127     -1001.8367      344362.3       110.61859      55.794803      55.794803      0              0              0            
     23700   1356.6078     -80286.68       3849.2247      49.635013      344258.1       110.60743      55.789175      55.789175      0              0              0            
     23800   1356.8112     -80289.93       3849.8017      425.44445      344166.72      110.59764      55.784238      55.784238      0              0              0            
     23900   1355.3761     -80288.864      3845.7299     -521.3185       344303.65      110.61231      55.791635      55.791635      0              0              0            
     24000   1352.3115     -80283.189      3837.0343     -488.27903      344375.73      110.62002      55.795528      55.795528      0              0              0            
     24100   1352.1119     -80285.103      3836.4682      679.4543       344100.88      110.59059      55.780681      55.780681      0              0              0            
     24200   1351.1078     -80284.551      3833.6189     -686.37778      344403.19      110.62296      55.797011      55.797011      0              0              0            
     24300   1355.4252     -80298.873      3845.8692      181.68971      344241.32      110.60563      55.788269      55.788269      0              0              0            
     24400   1345.3658     -80272.29       3817.3266      403.01537      344221.79      110.60354      55.787214      55.787214      0              0              0            
     24500   1340.0124     -80258.546      3802.137       34.152199      344394.27      110.62201      55.79653       55.79653       0              0              0            
     24600   1356.4348     -80305.655      3848.7338      444.31798      344162.11      110.59715      55.783989      55.783989      0              0              0            
     24700   1351.6116     -80292.354      3835.0484     -467.65853      344336.74      110.61585      55.793422      55.793422      0              0              0            
     24800   1359.5689     -80315.58       3857.6263     -40.373903      344154.24      110.5963       55.783564      55.783564      0              0              0            
     24900   1344.9451     -80275.591      3816.133       375.56952      344218.63      110.6032       55.787043      55.787043      0              0              0            
     25000   1356.3267     -80309.26       3848.4271     -533.37178      344305.06      110.61246      55.791711      55.791711      0              0              0            
     25100   1354.8987     -80307.65       3844.3754     -395.75961      344223.2       110.60369      55.78729       55.78729       0              0              0            
     25200   1367.6459     -80346.197      3880.5442      325.41779      343989.77      110.57868      55.774676      55.774676      0              0              0            
     25300   1350.8814     -80301.567      3832.9765     -468.35676      344316.71      110.6137       55.792341      55.792341      0              0              0            
     25400   1349.9539     -80301.373      3830.3449      426.97935      344104.86      110.59101      55.780896      55.780896      0              0              0            
     25500   1361.5973     -80336.494      3863.3817     -481.99737      344171.32      110.59813      55.784487      55.784487      0              0              0            
     25600   1352.2429     -80312.524      3836.8396      57.412428      344112.84      110.59187      55.781327      55.781327      0              0              0            
     25700   1354.4479     -80321.306      3843.0962     -668.59769      344293.44      110.61121      55.791084      55.791084      0              0              0            
     25800   1356.0201     -80327.996      3847.5571      890.84636      343894.91      110.56852      55.769549      55.769549      0              0              0            
     25900   1350.7551     -80315.299      3832.6183     -777.82387      344295.51      110.61143      55.791196      55.791196      0              0              0            
     26000   1350.7835     -80316.781      3832.6989     -508.36445      344223.16      110.60369      55.787287      55.787287      0              0              0            
     26100   1356.9191     -80335.277      3850.1079      482.63055      343941.91      110.57355      55.772089      55.772089      0              0              0            
     26200   1350.2246     -80318.143      3831.1129     -689.73832      344302.12      110.61214      55.791553      55.791553      0              0              0            
     26300   1358.1656     -80342.452      3853.6447      38.813949      344040.27      110.58409      55.777405      55.777405      0              0              0            
     26400   1355.1942     -80336.215      3845.2137      37.97774       344056.95      110.58588      55.778307      55.778307      0              0              0            
     26500   1356.7835     -80343.307      3849.7231     -106.81249      344004.44      110.58026      55.775469      55.775469      0              0              0            
     26600   1351.9934     -80332.964      3836.1318      50.131663      344062.37      110.58646      55.7786        55.7786        0              0              0            
     26700   1354.9089     -80344.536      3844.4043      847.7581       343827.93      110.56134      55.765928      55.765928      0              0              0            
     26800   1351.252      -80337.783      3834.0281     -639.89485      344149.96      110.59585      55.783333      55.783333      0              0              0            
     26900   1360.6563     -80367.742      3860.7119     -4.9765689      343896.36      110.56867      55.769627      55.769627      0              0              0            
     27000   1356.5511     -80360.047      3849.0637      133.96577      343896.63      110.5687       55.769642      55.769642      0              0              0            
     27100   1354.3332     -80358.3        3842.7708      368.85925      343841.38      110.56278      55.766655      55.766655      0              0              0            
     27200   1351.198      -80353.969      3833.875      -548.59162      344104.92      110.59102      55.780899      55.780899      0              0              0            
     27300   1362.2357     -80389.115      3865.1933      88.866938      343840.36      110.56267      55.7666        55.7666        0              0              0            
     27400   1348.9978     -80355.449      3827.6321      391.59001      343818.41      110.56032      55.765413      55.765413      0              0              0            
     27500   1352.3059     -80368.715      3837.0185     -747.17352      344074.01      110.58771      55.779228      55.779228      0              0              0            
     27600   1362.3961     -80400.751      3865.6482      478.81636      343699.11      110.54753      55.758963      55.758963      0              0              0            
     27700   1359.1319     -80395.392      3856.3864     -1576.422       344171.05      110.5981       55.784472      55.784472      0              0              0            
     27800   1350.244      -80374.4        3831.168       1609.0087      343544.41      110.53094      55.750595      55.750595      0              0              0            
     27900   1352.0664     -80383.807      3836.3389     -86.974623      343870         110.56585      55.768202      55.768202      0              0              0            
     28000   1353.2905     -80391.17       3839.8123     -719.08878      343941.72      110.57353      55.772079      55.772079      0              0              0            
     28100   1366.6105     -80432.79       3877.6061      902.01952      343483.9       110.52445      55.747322      55.747322      0              0              0            
     28200   1353.9151     -80401.266      3841.5845     -1199.9454      343992.99      110.57903      55.77485       55.77485       0              0              0            
     28300   1351.7569     -80399.337      3835.4608      327.37694      343675.95      110.54505      55.75771       55.75771       0              0              0            
     28400   1354.4091     -80410.346      3842.9862      262.93635      343680.97      110.54558      55.757981      55.757981      0              0              0            
     28500   1355.5843     -80416.934      3846.3205     -940.02851      343900.79      110.56915      55.769867      55.769867      0              0              0            
     28600   1354.2818     -80416.554      3842.6248      672.25964      343626.8       110.53978      55.755052      55.755052      0              0              0            
     28700   1357.4274     -80428.665      3851.5502      340.53819      343616.98      110.53872      55.754521      55.754521      0              0              0            
     28800   1353.662      -80420.958      3840.8661     -844.93568      343826.54      110.56119      55.765853      55.765853      0              0              0            
     28900   1358.1726     -80436.981      3853.6647      647.51763      343489.76      110.52508      55.747639      55.747639      0              0              0            
     29000   1350.4729     -80419.137      3831.8176     -584.63228      343829.45      110.5615       55.76601       55.76601       0              0              0            
     29100   1355.2218     -80436.356      3845.2919      612.28315      343550         110.53154      55.750898      55.750898      0              0              0            
     29200   1355.8302     -80442.001      3847.0182     -229.73987      343684.34      110.54595      55.758164      55.758164      0              0              0            
     29300   1357.4166     -80450.153      3851.5195     -688.63417      343759.97      110.55405      55.762254      55.762254      0              0              0            
     29400   1359.9632     -80461.054      3858.7453     -9.71076        343570.31      110.53372      55.751996      55.751996      0              0              0            
     29500   1350.1078     -80436.679      3830.7817      315.20456      343584.81      110.53527      55.752781      55.752781      0              0              0            
     29600   1356.4918     -80458.105      3848.8956      125.56583      343505.35      110.52675      55.748482      55.748482      0              0              0            
     29700   1351.8301     -80448.314      3835.6686     -397.20556      343629.63      110.54008      55.755205      55.755205      0              0              0            
     29800   1357.8633     -80469.513      3852.7869      500.92798      343386.4       110.51399      55.742047      55.742047      0              0              0            
     29900   1347.435      -80444.717      3823.1979      201.3298       343560.41      110.53266      55.751461      55.751461      0              0              0            
     30000   1357.7519     -80478.398      3852.4709      155.44029      343425.2       110.51815      55.744146      55.744146      0              0              0            
     30100   1353.3169     -80470.277      3839.887      -511.38408      343611.6       110.53815      55.75423       55.75423       0              0              0            
     30200   1352.5388     -80471.889      3837.6793      355.71296      343407.26      110.51623      55.743176      55.743176      0              0              0            
     30300   1352.5363     -80474.905      3837.6723     -695.61161      343648.4       110.54209      55.75622       55.75622       0              0              0            
     30400   1355.6789     -80486.477      3846.589       134.76304      343415.5       110.51711      55.743621      55.743621      0              0              0            
     30500   1355.1187     -80487.353      3844.9995      481.76378      343401.26      110.51559      55.742851      55.742851      0              0              0            
     30600   1348.0653     -80470.082      3824.9864     -415.60272      343619.41      110.53898      55.754652      55.754652      0              0              0            
     30700   1355.9047     -80495.306      3847.2296      1203.2697      343144.1       110.48799      55.728933      55.728933      0              0              0            
     30800   1354.6422     -80495.529      3843.6475     -863.2625       343620.07      110.53905      55.754688      55.754688      0              0              0            
     30900   1356.5033     -80504.352      3848.9283     -28.590125      343425.49      110.51819      55.744162      55.744162      0              0              0            
     31000   1349.5704     -80487.885      3829.2567      710.97461      343280.01      110.50258      55.73629       55.73629       0              0              0            
     31100   1354.9916     -80506.529      3844.639      -106.37372      343421.52      110.51776      55.743947      55.743947      0              0              0            
     31200   1351.7491     -80501.135      3835.4385     -425.30597      343471.45      110.52311      55.746648      55.746648      0              0              0            
     31300   1356.7573     -80518.599      3849.6488      282.3016       343249.46      110.4993       55.734636      55.734636      0              0              0            
     31400   1352.7637     -80511.439      3838.3176     -264.35282      343404.04      110.51588      55.743001      55.743001      0              0              0            
     31500   1350.203      -80508.177      3831.0519      1132.6114      343144.9       110.48808      55.728976      55.728976      0              0              0            
     31600   1354.1493     -80523.553      3842.2489     -48.221262      343321.97      110.50708      55.73856       55.73856       0              0              0            
     31700   1357.7732     -80538.025      3852.5314      465.78672      343158.59      110.48955      55.729717      55.729717      0              0              0            
     31800   1353.2204     -80530.33       3839.6134      3.1507929      343264.09      110.50087      55.735428      55.735428      0              0              0            
     31900   1363.705      -80565.469      3869.3621      88.121977      343158.7       110.48956      55.729723      55.729723      0              0              0            
     32000   1362.5315     -80568.002      3866.0324     -393.96284      343265.55      110.50103      55.735507      55.735507      0              0              0            
     32100   1364.7963     -80579.401      3872.4587     -367.62364      343206.88      110.49473      55.732331      55.732331      0              0              0            
     32200   1358.5336     -80566.656      3854.6888     -534.81481      343292.5       110.50392      55.736966      55.736966      0              0              0            
     32300   1346.5085     -80537.021      3820.5689      1244.3241      343039.11      110.47672      55.723248      55.723248      0              0              0            
     32400   1353.8556     -80561.791      3841.4157      373.32706      343092.13      110.48241      55.72612       55.72612       0              0              0            
     32500   1354.6697     -80567.888      3843.7256     -939.77798      343322.16      110.5071       55.73857       55.73857       0              0              0            
     32600   1355.7147     -80574.64       3846.6905      244.61315      343097.23      110.48296      55.726395      55.726395      0              0              0            
     32700   1356.5249     -80580.41       3848.9895      105.87277      343068.79      110.47991      55.724856      55.724856      0              0              0            
     32800   1362.8165     -80601.546      3866.841      -605.64007      343137.64      110.4873       55.728583      55.728583      0              0              0            
     32900   1357.9328     -80590.978      3852.9841     -422.45831      343127.5       110.48621      55.728034      55.728034      0              0              0            
     33000   1346.8812     -80562.802      3821.6265      103.83337      343115.37      110.48491      55.727377      55.727377      0              0              0            
     33100   1356.7125     -80593.671      3849.5219      86.462437      343021.57      110.47484      55.722299      55.722299      0              0              0            
     33200   1351.7169     -80582.692      3835.3472     -465.7107       343131.31      110.48662      55.72824       55.72824       0              0              0            
     33300   1347.656      -80573.459      3823.8249      352.26763      343000.23      110.47255      55.721143      55.721143      0              0              0            
     33400   1350.2421     -80582.659      3831.1626     -76.220241      343048.41      110.47772      55.723752      55.723752      0              0              0            
     33500   1355.1818     -80598.4        3845.1785     -420.1248       343086.52      110.48181      55.725815      55.725815      0              0              0            
     33600   1364.3481     -80626.335      3871.1869     -233.39666      342962.06      110.46845      55.719076      55.719076      0              0              0            
     33700   1352.3786     -80594.316      3837.2247     -790.90548      343239.45      110.49822      55.734094      55.734094      0              0              0            
     33800   1362.6572     -80625.294      3866.389      -183.33326      342966.21      110.4689       55.719301      55.719301      0              0              0            
     33900   1355.7109     -80607.442      3846.6798      140.62964      342948.32      110.46697      55.718332      55.718332      0              0              0            
     34000   1356.3444     -80611.128      3848.4774     -733.89174      343120.67      110.48548      55.727665      55.727665      0              0              0            
     34100   1364.0188     -80635.139      3870.2525      349.68446      342823.34      110.45355      55.711563      55.711563      0              0              0            
     34200   1355.326      -80613.621      3845.5877      80.080766      342926.62      110.46464      55.717157      55.717157      0              0              0            
     34300   1355.1207     -80616.199      3845.0052     -330.49579      343015.36      110.47417      55.721963      55.721963      0              0              0            
     34400   1349.801      -80604.224      3829.9111      121.55855      342937.49      110.46581      55.717746      55.717746      0              0              0            
     34500   1356.7232     -80626.544      3849.5521     -73.559137      342927.38      110.46473      55.717198      55.717198      0              0              0            
     34600   1348.3063     -80604.84       3825.6702     -643.80445      343109.51      110.48428      55.72706       55.72706       0              0              0            
     34700   1347.8212     -80605.133      3824.2935      389.31432      342899.92      110.46178      55.715711      55.715711      0              0              0            
     34800   1351.9681     -80618.212      3836.0599      1118.9476      342722.41      110.44271      55.706095      55.706095      0              0              0            
     34900   1350.8385     -80616.771      3832.855      -787.96215      343103.26      110.48361      55.726722      55.726722      0              0              0            
     35000   1356.1996     -80633.237      3848.0663     -307.15125      342984.75      110.47089      55.720305      55.720305      0              0              0            
     35100   1356.3233     -80634.219      3848.4175     -133.38494      342891.55      110.46088      55.715257      55.715257      0              0              0            
     35200   1347.6693     -80610.499      3823.8626     -132.25423      342976.04      110.46995      55.719834      55.719834      0              0              0            
     35300   1352.3715     -80624.74       3837.2045     -84.986461      342937.4       110.4658       55.717741      55.717741      0              0              0            
     35400   1352.9936     -80626.969      3838.9697      681.08951      342764.61      110.44725      55.708381      55.708381      0              0              0            
     35500   1351.5739     -80623.546      3834.9414     -1259.0955      343161.19      110.48983      55.729858      55.729858      0              0              0            
     35600   1360.9122     -80649.967      3861.4379      920.26764      342642.35      110.43411      55.701757      55.701757      0              0              0            
     35700   1348.3728     -80615.36       3825.8588     -319.08527      342997.76      110.47228      55.721009      55.721009      0              0              0            
     35800   1357.1182     -80641.439      3850.673      -509.71715      342923.48      110.46431      55.716987      55.716987      0              0              0            
     35900   1362.0659     -80657.381      3864.7114      37.25469       342763.23      110.4471       55.708306      55.708306      0              0              0            
     36000   1349.8809     -80625.501      3830.1377     -412.57409      342955.59      110.46776      55.718726      55.718726      0              0              0            
     36100   1365.2603     -80671.929      3873.775       374.93218      342655.7       110.43555      55.702481      55.702481      0              0              0            
     36200   1348.6407     -80628.111      3826.619      -1031.065       343067.24      110.47974      55.724772      55.724772      0              0              0            
     36300   1364.5084     -80676.503      3871.6417      664.07717      342561.54      110.42543      55.697378      55.697378      0              0              0            
     36400   1350.6904     -80641.497      3832.4346      18.758663      342847.34      110.45613      55.712863      55.712863      0              0              0            
     36500   1357.4266     -80664.263      3851.5478      2.37889        342794.49      110.45046      55.71          55.71          0              0              0            
     36600   1353.666      -80657.284      3840.8776      213.33868      342753.34      110.44604      55.707771      55.707771      0              0              0            
     36700   1350.89       -80652.954      3833.0011      91.871086      342782.11      110.44913      55.709329      55.709329      0              0              0            
     36800   1354.5005     -80666.923      3843.2455     -384.7037       342858.61      110.45734      55.713473      55.713473      0              0              0            
     36900   1352.6059     -80664.685      3837.8696      395.80934      342714.65      110.44188      55.705675      55.705675      0              0              0            
     37000   1359.1593     -80686.478      3856.4642     -858.38681      342860.03      110.4575       55.71355       55.71355       0              0              0            
     37100   1351.6792     -80667.749      3835.2404      253.47247      342670.26      110.43711      55.70327       55.70327       0              0              0            
     37200   1354.2609     -80677.314      3842.5656     -175.9561       342745.4       110.44518      55.707341      55.707341      0              0              0            
     37300   1357.7399     -80689.493      3852.4369      102.77216      342631.63      110.43296      55.701176      55.701176      0              0              0            
     37400   1355.0233     -80684.517      3844.7287     -770.90996      342782.69      110.44919      55.709361      55.709361      0              0              0            
     37500   1357.3428     -80693.783      3851.3102     -257.80127      342701.52      110.44047      55.704963      55.704963      0              0              0            
     37600   1353.5443     -80685.502      3840.5324      23.029055      342693.69      110.43963      55.704539      55.704539      0              0              0            
     37700   1351.0871     -80680.483      3833.5604      404.77604      342605.92      110.4302       55.699783      55.699783      0              0              0            
     37800   1349.6566     -80678.406      3829.5013      144.80411      342676.79      110.43781      55.703623      55.703623      0              0              0            
     37900   1353.0523     -80690.067      3839.1364      157.7817       342633.23      110.43313      55.701263      55.701263      0              0              0            
     38000   1357.1005     -80703.92       3850.6227      84.687607      342583.57      110.4278       55.698572      55.698572      0              0              0            
     38100   1357.3983     -80707.447      3851.4675     -417.18567      342697.83      110.44007      55.704763      55.704763      0              0              0            
     38200   1356.7016     -80708.686      3849.4907     -580.40095      342691.72      110.43942      55.704432      55.704432      0              0              0            
     38300   1355.3994     -80707.651      3845.7959      32.927347      342586.78      110.42814      55.698746      55.698746      0              0              0            
     38400   1345.9811     -80683.224      3819.0725     -43.578355      342713.52      110.44176      55.705613      55.705613      0              0              0            
     38500   1354.6912     -80709.706      3843.7865      441.34513      342518.68      110.42083      55.695055      55.695055      0              0              0            
     38600   1355.0966     -80712.676      3844.9367     -777.78922      342693.87      110.43965      55.704549      55.704549      0              0              0            
     38700   1353.3285     -80709.62       3839.9199      247.32379      342513.98      110.42032      55.6948        55.6948        0              0              0            
     38800   1353.486      -80712.066      3840.367      -78.049407      342580.56      110.42748      55.698409      55.698409      0              0              0            
     38900   1350.0134     -80703.969      3830.5139     -9.6706599      342579.25      110.42733      55.698337      55.698337      0              0              0            
     39000   1354.2974     -80717.646      3842.6692     -519.97609      342679.25      110.43808      55.703757      55.703757      0              0              0            
     39100   1352.8174     -80714.93       3838.4698      232.10787      342501.53      110.41898      55.694125      55.694125      0              0              0            
     39200   1349.76       -80708.022      3829.7947      153.03024      342527.88      110.42181      55.695554      55.695554      0              0              0            
     39300   1348.5067     -80706.156      3826.2386      334.80274      342559.39      110.4252       55.697261      55.697261      0              0              0            
     39400   1351.67       -80716.858      3835.2142      276.46377      342478.43      110.4165       55.692873      55.692873      0              0              0            
     39500   1358.9217     -80739.27       3855.7901      177.89913      342447.27      110.41315      55.691184      55.691184      0              0              0            
     39600   1359.3191     -80742.726      3856.9177     -444.66419      342523.07      110.4213       55.695293      55.695293      0              0              0            
     39700   1356.7956     -80738.167      3849.7575     -95.538713      342527.96      110.42182      55.695558      55.695558      0              0              0            
     39800   1351.2681     -80725.407      3834.0739      503.419        342398.19      110.40788      55.688524      55.688524      0              0              0            
     39900   1354.9721     -80739.072      3844.5836     -603.29848      342576.68      110.42706      55.698198      55.698198      0              0              0            
     40000   1359.0011     -80753.723      3856.0153      577.32643      342291.68      110.39643      55.682748      55.682748      0              0              0            
     40100   1352.8011     -80739.664      3838.4236     -238.3496       342531.94      110.42225      55.695774      55.695774      0              0              0            
     40200   1344.4695     -80719.598      3814.7835      465.53648      342445.24      110.41293      55.691074      55.691074      0              0              0            
     40300   1357.9046     -80760.769      3852.9041      779.45205      342225.06      110.38926      55.679136      55.679136      0              0              0            
     40400   1360.1555     -80770.513      3859.2908     -744.44389      342527.68      110.42179      55.695543      55.695543      0              0              0            
     40500   1358.3924     -80768.872      3854.2883     -58.992966      342327.91      110.40032      55.684713      55.684713      0              0              0            
     40600   1348.4353     -80744.177      3826.0361     -146.08407      342453.72      110.41384      55.691534      55.691534      0              0              0            
     40700   1356.6389     -80770.345      3849.3128      721.39852      342196.63      110.38621      55.677594      55.677594      0              0              0            
     40800   1349.953      -80754.221      3830.3423     -211.13481      342455.28      110.41401      55.691618      55.691618      0              0              0            
     40900   1350.4652     -80758.036      3831.7958     -224.10568      342404.27      110.40853      55.688853      55.688853      0              0              0            
     41000   1357.5088     -80780.159      3851.7813      422.10092      342244.12      110.39131      55.680169      55.680169      0              0              0            
     41100   1354.77       -80774.806      3844.01       -622.73933      342457.11      110.41421      55.691717      55.691717      0              0              0            
     41200   1347.0919     -80755.852      3822.2245      56.801649      342385.66      110.40653      55.687844      55.687844      0              0              0            
     41300   1354.7535     -80779.748      3843.9634      306.7166       342240.19      110.39089      55.679956      55.679956      0              0              0            
     41400   1337.299      -80732.32       3794.4382     -295.27575      342547.33      110.4239       55.696607      55.696607      0              0              0            
     41500   1348.3833     -80765.428      3825.8886      1630.3476      341971.79      110.36203      55.665397      55.665397      0              0              0            
     41600   1356.4275     -80790.606      3848.7131     -514.14796      342398.01      110.40786      55.688514      55.688514      0              0              0            
     41700   1347.7967     -80768.33       3824.224      -796.12648      342509.9       110.41988      55.694579      55.694579      0              0              0            
     41800   1345.2691     -80762.786      3817.0522      1237.2841      342080.78      110.37375      55.67131       55.67131       0              0              0            
     41900   1346.2784     -80767.386      3819.916      -90.224166      342357.16      110.40347      55.686299      55.686299      0              0              0            
     42000   1358.1469     -80802.791      3853.5916      55.924438      342239.71      110.39084      55.67993       55.67993       0              0              0            
     42100   1353.8735     -80792.72       3841.4664      216.62536      342218.76      110.38859      55.678794      55.678794      0              0              0            
     42200   1356.2355     -80801.775      3848.1684     -720.89323      342366.43      110.40446      55.686801      55.686801      0              0              0            
     42300   1355.8489     -80803.057      3847.0714      381.56998      342109.2       110.37681      55.672851      55.672851      0              0              0            
     42400   1350.5838     -80790.88       3832.1322     -464.87279      342328.52      110.40039      55.684746      55.684746      0              0              0            
     42500   1353.2305     -80800.763      3839.642       291.95682      342177.64      110.38417      55.676564      55.676564      0              0              0            
     42600   1357.017      -80813.524      3850.3857     -376.11249      342285.06      110.39572      55.68239       55.68239       0              0              0            
     42700   1362.5215     -80831.303      3866.0042      73.535002      342115.14      110.37744      55.673174      55.673174      0              0              0            
     42800   1357.6882     -80819.6        3852.2902     -1358.8991      342402.82      110.40837      55.688774      55.688774      0              0              0            
     42900   1348.7357     -80796.154      3826.8885      198.7667       342178.9       110.3843       55.676632      55.676632      0              0              0            
     43000   1350.5012     -80803.773      3831.898       1324.1995      341929.98      110.35753      55.663128      55.663128      0              0              0            
     43100   1345.6222     -80793.021      3818.0543     -1217.917       342464.78      110.41503      55.692133      55.692133      0              0              0            
     43200   1359.4353     -80834.119      3857.2473      223.55301      341991.61      110.36416      55.666472      55.666472      0              0              0            
     43300   1359.7337     -80837.179      3858.094      -145.65998      342099.12      110.37572      55.672305      55.672305      0              0              0            
     43400   1353.8858     -80823.081      3841.5013     -730.22077      342266.87      110.39376      55.681403      55.681403      0              0              0            
     43500   1346.9521     -80805.736      3821.8277      490.82184      342076.4       110.37328      55.671072      55.671072      0              0              0            
[...]
   1371400   1349.3727     -81390.496      3828.696       462.44442      339816.94      110.12973      55.54823       55.54823       0              0              0            
   1371500   1357.3853     -81413.374      3851.4308      371.29227      339775.7       110.12528      55.545983      55.545983      0              0              0            
   1371600   1349.7656     -81392.545      3829.8108     -981.46011      340121.62      110.16264      55.564827      55.564827      0              0              0            
   1371700   1354.5905     -81406.638      3843.5008      1067.6883      339666         110.11342      55.540004      55.540004      0              0              0            
   1371800   1346.9736     -81385.854      3821.8885     -866.00262      340109.94      110.16137      55.56419       55.56419       0              0              0            
   1371900   1353.7665     -81405.516      3841.1629      231.61093      339822.05      110.13028      55.548508      55.548508      0              0              0            
   1372000   1341.3701     -81370.889      3805.9894      543.73118      339828.89      110.13102      55.548881      55.548881      0              0              0            
   1372100   1349.0334     -81392.758      3827.7332     -363.04728      339988.9       110.1483       55.557598      55.557598      0              0              0            
   1372200   1348.4079     -81391.262      3825.9582      779.58862      339738.04      110.12121      55.54393       55.54393       0              0              0            
   1372300   1351.441      -81400.089      3834.5643     -179.62992      339928.08      110.14174      55.554285      55.554285      0              0              0            
   1372400   1342.9898     -81376.461      3810.5851     -432.64347      340022.26      110.15191      55.559415      55.559415      0              0              0            
   1372500   1350.5721     -81397.824      3832.0989      1329.4484      339622.55      110.10873      55.537636      55.537636      0              0              0            
   1372600   1342.1623     -81374.126      3808.2373     -234.46806      340005.76      110.15013      55.558516      55.558516      0              0              0            
   1372700   1354.9462     -81410.365      3844.5101     -308.78177      339896.38      110.13831      55.552558      55.552558      0              0              0            
   1372800   1355.992      -81413.607      3847.4774      213.19702      339774.03      110.12509      55.545891      55.545891      0              0              0            
   1372900   1349.82       -81396.593      3829.965      -87.653076      339887.39      110.13734      55.552068      55.552068      0              0              0            
   1373000   1358.1718     -81420.29       3853.6624     -898.23696      339980.86      110.14744      55.55716       55.55716       0              0              0            
   1373100   1353.0175     -81405.569      3839.0375     -176.8032       339863.69      110.13478      55.550777      55.550777      0              0              0            
   1373200   1350.9058     -81399.339      3833.0458     -614.4123       339974.93      110.1468       55.556837      55.556837      0              0              0            
   1373300   1351.1927     -81399.64       3833.8598      303.8352       339828.41      110.13097      55.548855      55.548855      0              0              0            
   1373400   1351.3339     -81399.64       3834.2606      39.441007      339873.35      110.13582      55.551303      55.551303      0              0              0            
   1373500   1350.8515     -81397.566      3832.8919     -68.635136      339918.65      110.14072      55.553771      55.553771      0              0              0            
   1373600   1354.8096     -81408.234      3844.1224      170.31397      339812.19      110.12922      55.547971      55.547971      0              0              0            
   1373700   1347.5323     -81387.336      3823.474      -13.357774      339930.49      110.142        55.554416      55.554416      0              0              0            
   1373800   1356.0575     -81411.247      3847.6632     -99.193968      339851.93      110.13351      55.550136      55.550136      0              0              0            
   1373900   1345.5723     -81381.488      3817.9125     -210.92874      339961.49      110.14534      55.556105      55.556105      0              0              0            
   1374000   1347.6971     -81387.007      3823.9415      271.63764      339860.93      110.13448      55.550626      55.550626      0              0              0            
   1374100   1346.7654     -81383.817      3821.2978      30.938032      339935.96      110.14259      55.554714      55.554714      0              0              0            
   1374200   1354.9534     -81406.706      3844.5305     -300.63519      339891.29      110.13776      55.552281      55.552281      0              0              0            
   1374300   1354.6605     -81406.073      3843.6995     -534.2919       339926.28      110.14154      55.554187      55.554187      0              0              0            
   1374400   1348.4137     -81388.611      3825.9749     -141.28652      339942.04      110.14324      55.555045      55.555045      0              0              0            
   1374500   1366.0271     -81438.377      3875.9509     -175.18817      339772.39      110.12492      55.545802      55.545802      0              0              0            
   1374600   1348.228      -81388.07       3825.4479     -517.87259      339996.7       110.14915      55.558023      55.558023      0              0              0            
   1374700   1353.4923     -81403.175      3840.3847     -333.7943       339939.88      110.14301      55.554928      55.554928      0              0              0            
   1374800   1350.449      -81394.6        3831.7497      321.64297      339811.49      110.12914      55.547933      55.547933      0              0              0            
   1374900   1345.5614     -81380.744      3817.8818      48.842342      339933.41      110.14231      55.554575      55.554575      0              0              0            
   1375000   1342.8114     -81373.058      3810.0788      607.58501      339833.2       110.13149      55.549116      55.549116      0              0              0            
   1375100   1338.7067     -81361.347      3798.4322      772.51965      339838.62      110.13207      55.549411      55.549411      0              0              0            
   1375200   1350.1488     -81393.799      3830.8979     -160.16225      339950.84      110.14419      55.555525      55.555525      0              0              0            
   1375300   1361.1646     -81425.132      3862.1539      121.95062      339765.93      110.12422      55.54545       55.54545       0              0              0            
   1375400   1351.7486     -81398.885      3835.4372     -1174.1249      340118.2       110.16227      55.56464       55.56464       0              0              0            
   1375500   1358.6094     -81418.308      3854.9039      622.13377      339709.65      110.11814      55.542383      55.542383      0              0              0            
   1375600   1351.4486     -81398.476      3834.5861     -811.2052       340003.64      110.1499       55.558401      55.558401      0              0              0            
   1375700   1351.5947     -81398.999      3835.0006     -407.35023      339944.32      110.14349      55.55517       55.55517       0              0              0            
   1375800   1350.2443     -81395.33       3831.1688      526.26198      339775.32      110.12523      55.545962      55.545962      0              0              0            
   1375900   1346.2399     -81384.159      3819.8069     -103.04687      339969.41      110.1462       55.556536      55.556536      0              0              0            
   1376000   1353.7412     -81405.698      3841.091       389.99392      339794.88      110.12735      55.547028      55.547028      0              0              0            
   1376100   1351.0461     -81398.621      3833.4441     -402.40756      339987.98      110.1482       55.557548      55.557548      0              0              0            
   1376200   1351.3465     -81400.005      3834.2962      376.55133      339808.54      110.12882      55.547772      55.547772      0              0              0            
   1376300   1357.6112     -81418.207      3852.0717     -380.78095      339918.38      110.14069      55.553756      55.553756      0              0              0            
   1376400   1344.3421     -81380.976      3814.422      -157.42912      339972.86      110.14657      55.556724      55.556724      0              0              0            
   1376500   1344.8282     -81382.736      3815.8012      979.58706      339740.78      110.1215       55.544079      55.544079      0              0              0            
   1376600   1355.1507     -81412.167      3845.0903     -155.55713      339866.76      110.13511      55.550944      55.550944      0              0              0            
   1376700   1350.2031     -81398.473      3831.0519     -675.17527      340004.77      110.15002      55.558463      55.558463      0              0              0            
   1376800   1350.7493     -81400.019      3832.6019      620.61728      339747.16      110.12219      55.544428      55.544428      0              0              0            
   1376900   1340.9814     -81372.17       3804.8865     -200.04429      339985.12      110.1479       55.557392      55.557392      0              0              0            
   1377000   1355.5122     -81412.671      3846.1161      155.10502      339807.25      110.12868      55.547702      55.547702      0              0              0            
   1377100   1348.5541     -81392.852      3826.3731     -433.13755      340005.88      110.15014      55.558523      55.558523      0              0              0            
   1377200   1347.0893     -81388.204      3822.217       18.884049      339924.7       110.14137      55.554101      55.554101      0              0              0            
   1377300   1356.8747     -81415.456      3849.982      -92.307335      339848.35      110.13312      55.549941      55.549941      0              0              0            
   1377400   1355.9683     -81412.626      3847.4101     -559.31291      339951.6       110.14428      55.555566      55.555566      0              0              0            
   1377500   1342.0592     -81373.652      3807.9445     -304.68506      339991.08      110.14854      55.557717      55.557717      0              0              0            
   1377600   1356.6509     -81414.901      3849.3469      1425.1311      339564.15      110.10242      55.534452      55.534452      0              0              0            
   1377700   1356.1537     -81414.016      3847.9362     -2072.8903      340257.48      110.1773       55.572224      55.572224      0              0              0            
   1377800   1360.4301     -81426.452      3860.07        615.23523      339667.08      110.11354      55.540063      55.540063      0              0              0            
   1377900   1339.4219     -81367.746      3800.4614     -151.1785       339997.93      110.14928      55.55809       55.55809       0              0              0            
   1378000   1348.519      -81393.756      3826.2736     -0.063223698    339882.93      110.13686      55.551825      55.551825      0              0              0            
   1378100   1354.7327     -81411.671      3843.9044      580.53493      339693.17      110.11636      55.541485      55.541485      0              0              0            
   1378200   1335.8655     -81358.985      3790.3705     -408.18836      340066.85      110.15672      55.561844      55.561844      0              0              0            
   1378300   1338.1554     -81365.623      3796.8681      1823.9123      339618.31      110.10827      55.537405      55.537405      0              0              0            
   1378400   1345.8045     -81387.584      3818.5715     -217.90956      339956.91      110.14485      55.555856      55.555856      0              0              0            
   1378500   1350.1565     -81399.695      3830.9197     -804.26273      340044.16      110.15427      55.560608      55.560608      0              0              0            
   1378600   1348.8964     -81395.761      3827.3444      1049.4121      339665.64      110.11338      55.539985      55.539985      0              0              0            
   1378700   1355.6452     -81414.669      3846.4932     -880.33932      339996.26      110.1491       55.557999      55.557999      0              0              0            
   1378800   1357.5997     -81420.285      3852.0389     -265.8101       339871.86      110.13566      55.551222      55.551222      0              0              0            
   1378900   1349.7432     -81397.793      3829.7472     -488.53396      339980.61      110.14741      55.557147      55.557147      0              0              0            
   1379000   1357.1817     -81418.318      3850.8531     -400.022        339875.65      110.13607      55.551429      55.551429      0              0              0            
   1379100   1355.1261     -81412.415      3845.0206      739.74422      339682.53      110.11521      55.540905      55.540905      0              0              0            
   1379200   1353.2305     -81406.97       3839.642      -1170.5907      340072.29      110.15731      55.56214       55.56214       0              0              0            
   1379300   1353.4817     -81407.352      3840.3547     -88.267097      339867.11      110.13515      55.550963      55.550963      0              0              0            
   1379400   1339.0196     -81365.604      3799.32        675.28126      339808.54      110.12882      55.547772      55.547772      0              0              0            
   1379500   1343.0529     -81376.499      3810.7641     -359.56255      339982.49      110.14761      55.557249      55.557249      0              0              0            
   1379600   1344.2626     -81379.555      3814.1964      1130.8213      339695.05      110.11656      55.541588      55.541588      0              0              0            
   1379700   1340.7835     -81369.57       3804.3248     -297.05787      340008.83      110.15046      55.558684      55.558684      0              0              0            
   1379800   1353.759      -81405.849      3841.1416      677.89268      339717.29      110.11896      55.5428        55.5428        0              0              0            
   1379900   1353.817      -81406.267      3841.3062     -946.11366      340057         110.15566      55.561307      55.561307      0              0              0            
   1380000   1349.6313     -81394.461      3829.4296     -13.524896      339877.22      110.13624      55.551514      55.551514      0              0              0            
   1380100   1336.2995     -81356.536      3791.602       1207.6258      339792.06      110.12704      55.546874      55.546874      0              0              0            
   1380200   1356.091      -81412.379      3847.7582     -106.29853      339848.37      110.13313      55.549942      55.549942      0              0              0            
   1380300   1350.9825     -81397.872      3833.2636     -751.55596      340040.23      110.15385      55.560394      55.560394      0              0              0            
   1380400   1349.8356     -81394.832      3830.0094      669.12087      339731.57      110.12051      55.543578      55.543578      0              0              0            
   1380500   1353.1964     -81404.19       3839.5452     -894.52733      340033.11      110.15308      55.560006      55.560006      0              0              0            
   1380600   1348.1725     -81389.692      3825.2904      94.064112      339891.96      110.13784      55.552317      55.552317      0              0              0            
   1380700   1346.2655     -81383.971      3819.8794      786.17683      339732.41      110.1206       55.543624      55.543624      0              0              0            
   1380800   1343.8323     -81376.474      3812.9756     -196.03831      339986.08      110.148        55.557445      55.557445      0              0              0            
   1380900   1347.2709     -81385.311      3822.7323      850.05455      339778.13      110.12554      55.546115      55.546115      0              0              0            
   1381000   1353.9254     -81403.603      3841.6135     -203.48479      339914.15      110.14023      55.553526      55.553526      0              0              0            
   1381100   1348.5344     -81388.168      3826.3172     -448.97357      339998.09      110.1493       55.558098      55.558098      0              0              0            
   1381200   1347.1527     -81384.317      3822.3968      1119.5239      339726.59      110.11997      55.543306      55.543306      0              0              0            
   1381300   1350.5593     -81393.912      3832.0628     -341.94953      339971.01      110.14637      55.556623      55.556623      0              0              0            
   1381400   1352.5986     -81399.795      3837.849      -501.58974      339940.14      110.14304      55.554942      55.554942      0              0              0            
   1381500   1352.4957     -81399.509      3837.5572      626.147        339743.4       110.12179      55.544222      55.544222      0              0              0            
   1381600   1347.3692     -81385.027      3823.0112     -576.01628      340053.25      110.15525      55.561103      55.561103      0              0              0            
   1381700   1353.4266     -81401.895      3840.1985      319.26299      339821.2       110.13019      55.548462      55.548462      0              0              0            
   1381800   1351.3416     -81396.152      3834.2823      31.031827      339885.93      110.13718      55.551989      55.551989      0              0              0            
   1381900   1347.4921     -81385.41       3823.3599     -529.0499       339999.22      110.14942      55.55816       55.55816       0              0              0            
   1382000   1353.9264     -81403.632      3841.6165      301.64856      339806.66      110.12862      55.547669      55.547669      0              0              0            
   1382100   1336.7944     -81355.245      3793.0063      1143.6288      339784.53      110.12623      55.546464      55.546464      0              0              0            
   1382200   1352.7439     -81400.56       3838.2613     -683.20535      340032.22      110.15298      55.559958      55.559958      0              0              0            
   1382300   1349.4212     -81391.022      3828.8334     -98.320778      339917.34      110.14058      55.5537        55.5537        0              0              0            
   1382400   1351.6722     -81397.5        3835.2205      617.05985      339737.2       110.12112      55.543884      55.543884      0              0              0            
   1382500   1348.0689     -81387.631      3824.9966     -480.96836      340025.61      110.15227      55.559598      55.559598      0              0              0            
