# LAMMPS data file written by OVITO Basic 3.8.0

21952 atoms
1 atom types

0.0 110.92 xlo xhi
0.0 54.46 ylo yhi
0.0 54.46 zlo zhi

Atoms  # atomic

2143 1 59.24873 0.828738 3.82479
10419 1 57.276126 2.12448 2.00166
4938 1 58.76643 0.806681 0.736791
2972 1 60.94965 2.53446 2.75907
4979 1 60.92669 2.52414 0.26526
2856 1 63.23344 3.75153 0.39449
6285 1 62.99301 1.73089 2.78757
4778 1 61.57815 0.688616 1.06579
10955 1 65.68331 1.61207 1.68246
3149 1 67.4128 1.87433 0.0342742
8792 1 64.52511 3.28185 3.35499
2733 1 66.461 0.0972047 3.57467
10416 1 68.266 2.18144 2.33637
7095 1 70.3427 3.24662 2.44802
5045 1 70.6941 0.681769 1.73691
1821 1 73.8135 0.719325 2.39918
747 1 75.6984 0.848496 0.876567
5058 1 72.5427 2.24578 1.17246
9300 1 73.6826 2.66126 3.66665
8921 1 74.7329 3.15166 1.5558
6296 1 76.3276 1.99647 3.33415
8746 1 78.8398 2.34789 2.35857
4130 1 77.1513 3.83569 1.88677
6784 1 79.425 0.887006 0.00721283
3630 1 80.9392 3.17434 0.74753
5338 1 83.4436 2.74014 2.06737
1197 1 80.1748 0.0690183 2.53213
708 1 81.2372 2.19801 3.56006
7424 1 82.3162 0.30579 1.6715
7466 1 84.7897 0.24955 1.48737
1246 1 86.9794 0.289358 0.480035
150 1 85.3973 3.55991 2.89604
10059 1 86.3577 0.576471 3.12704
10621 1 86.1608 1.93042 0.909877
1856 1 89.1862 1.32019 0.297731
1766 1 88.261 2.82105 2.39988
3097 1 89.573 3.78403 0.657748
2724 1 89.1515 0.742954 2.69794
2534 1 90.688 3.23103 3.00806
10283 1 91.6008 0.456098 0.656213
7022 1 95.1135 0.615774 3.69625
1039 1 91.9066 3.03656 0.973241
10176 1 95.1576 3.08844 1.99211
3914 1 93.2723 2.04043 2.82143
9303 1 94.0815 1.78447 0.121089
3183 1 96.1925 3.25895 0.0705044
9307 1 98.671 0.723952 0.541119
190 1 96.3713 1.19229 1.57032
9912 1 98.6536 3.57995 0.312863
10169 1 96.8282 2.15272 3.83201
1233 1 99.8239 2.44773 2.36095
8212 1 102.906 3.80468 2.28469
6778 1 100.7027 0.6049 3.80819
4082 1 102.2975 1.84494 0.949202
9120 1 104.8445 0.755788 0.639204
2369 1 104.3817 3.48735 0.308291
1716 1 103.5479 0.449562 2.51897
6394 1 104.3067 2.36144 3.36384
9459 1 109.7489 0.622615 2.66467
858 1 108.7556 3.12875 3.83566
2728 1 107.0913 1.96797 2.27301
3952 1 109.4489 2.7896 1.75459
2758 1 59.26801 4.62285 2.1588
4158 1 57.004825 5.05552 2.111
10514 1 60.05048 6.90125 2.9018
8848 1 57.56448 7.23184 1.03859
10863 1 61.80575 4.76443 2.10814
4165 1 63.20764 7.59574 0.919159
2263 1 65.84298 3.93128 0.64501
4406 1 64.53027 5.72414 1.80175
1545 1 67.368 5.23172 2.73672
1406 1 68.0877 7.6007 2.6119
5799 1 65.17801 7.33243 3.58345
4195 1 67.6865 6.36054 0.617148
1809 1 71.6689 7.29156 2.91862
5679 1 69.9129 5.83274 2.75525
3940 1 68.5394 4.10849 0.708665
8954 1 71.6352 4.83738 0.759655
3710 1 70.4543 6.97086 0.698897
4222 1 73.2769 6.92931 0.631547
3652 1 72.535 4.43629 2.92549
558 1 75.6256 4.90965 2.87721
10701 1 77.0369 6.20776 1.08168
968 1 76.2919 7.39475 3.5712
7246 1 79.7984 5.597 2.35371
6360 1 82.4784 7.50343 2.3394
3649 1 82.0636 5.29308 1.26109
4253 1 82.7446 4.73967 3.4263
2426 1 84.6805 5.25284 1.08386
1785 1 84.825 6.65595 2.90829
6501 1 87.1486 5.18294 1.42964
3965 1 87.3598 7.35698 0.592006
1231 1 90.7132 6.81819 0.353989
6148 1 90.3773 5.5809 3.34542
3861 1 89.1074 6.26719 1.84302
7403 1 95.271 5.73409 1.75543
6302 1 93.1924 7.49049 0.561135
947 1 92.6974 5.6153 1.79078
3369 1 92.881 5.62325 3.8437
6920 1 98.0953 6.52451 1.55958
8102 1 97.4303 4.12108 2.47455
8511 1 100.0787 4.96168 1.73323
7840 1 102.5409 5.34817 0.902493
9064 1 100.7738 7.48574 1.2883
1501 1 100.0737 7.25937 3.67217
2659 1 101.4805 5.6236 3.765
5407 1 105.7424 6.26107 1.15441
9180 1 103.8653 7.55394 0.118326
1355 1 103.8466 6.27024 2.44692
3537 1 105.5305 4.37169 3.0503
825 1 110.1631 6.12982 0.429573
1014 1 109.9077 7.57337 1.82974
7164 1 107.9164 6.60211 3.31162
1537 1 107.5371 4.69734 1.46787
499 1 109.5433 5.24247 3.88359
1907 1 58.8092 8.65914 2.77627
5972 1 57.302168 10.0585 2.59506
8346 1 59.69036 11.2578 2.05564
4765 1 57.87975 10.6053 0.0818357
3622 1 59.01512 8.65378 0.114491
3023 1 63.54591 9.88293 0.860287
9423 1 61.27731 9.44697 2.67078
4479 1 63.55817 8.81568 3.19025
4890 1 61.02809 7.8468 0.442585
9883 1 60.95248 10.1714 0.281923
4939 1 66.09316 10.2233 3.40784
7311 1 65.88122 8.38215 1.4743
3955 1 67.834 9.75937 1.76506
6846 1 70.4621 9.85011 2.57418
4198 1 70.4552 9.81531 0.208397
3638 1 72.5486 11.5488 1.46531
7681 1 72.6827 9.20199 1.23014
1064 1 74.5154 10.4512 3.0508
9657 1 74.3394 7.78082 2.33517
555 1 75.8576 7.95871 0.552933
10362 1 76.8496 9.52369 1.87133
9100 1 78.505 8.33937 0.550462
1308 1 78.2214 11.245 3.80086
5902 1 78.776 8.27318 3.15625
10761 1 81.8049 11.0471 2.36712
5827 1 81.0265 9.01876 3.13534
323 1 80.5502 8.1021 0.555879
2867 1 79.9952 10.6654 1.27746
6884 1 87.3401 8.4104 3.63946
807 1 83.8505 9.7187 2.7425
5530 1 86.0138 8.86263 2.17912
8823 1 86.8541 10.7042 1.32562
1317 1 89.7121 8.21743 2.48519
9137 1 88.468 11.5489 3.62192
6002 1 89.4762 10.2793 1.646
7750 1 91.2977 9.18815 1.0144
1512 1 91.1616 11.1053 2.88104
3111 1 93.4273 9.895 0.891543
6896 1 94.9317 7.91407 2.91213
5615 1 95.2484 10.0847 2.20942
7755 1 91.8435 7.87192 2.83172
6919 1 93.1111 9.65859 3.67744
7815 1 95.807 8.24936 0.320151
5603 1 96.2186 11.466 0.861332
5512 1 97.5006 9.53764 1.20995
6101 1 97.6429 8.36987 3.23614
6780 1 102.922 8.56154 3.03125
6742 1 102.1048 9.33018 0.446896
2040 1 99.4771 9.91357 2.59467
2087 1 101.5267 10.9532 2.33446
2441 1 104.5386 9.5895 0.0402583
4476 1 106.6319 10.8579 1.29584
10819 1 104.2192 10.49 2.76631
9992 1 105.3289 8.04166 2.63881
7671 1 109.0169 10.2121 2.90768
6164 1 107.5588 8.49064 1.487
789 1 109.978 9.62559 0.795544
7203 1 56.93421 12.2795 1.80406
3735 1 58.14054 15.243 0.465793
3228 1 58.46367 13.9896 3.29625
3412 1 60.26243 13.792 1.31134
5513 1 62.19195 11.6948 2.24546
8957 1 63.97325 13.7117 3.52581
3579 1 61.93418 14.5639 2.81507
9603 1 64.6194 11.7148 2.13887
2615 1 67.9402 11.837 2.26967
7938 1 65.69138 13.5613 1.31237
8160 1 67.8869 15.0132 1.6748
7469 1 67.6665 13.587 0.10137
9081 1 64.58923 15.5584 2.25233
5150 1 70.7026 12.6828 0.499002
8110 1 70.6821 12.1571 3.15503
10908 1 73.0193 12.3937 3.85258
10599 1 72.8415 14.4986 0.470684
7734 1 72.0672 14.3535 2.81614
798 1 75.0869 14.1922 2.00687
5201 1 76.4515 12.8928 3.77837
8699 1 77.3446 15.0272 1.63878
1949 1 78.0161 12.4149 1.43569
7789 1 79.7119 13.1661 2.90111
2183 1 82.2343 14.5806 2.67535
1718 1 82.9193 14.4861 0.0697836
5370 1 83.1243 12.5205 1.18806
7619 1 84.9896 12.0001 2.94266
10087 1 85.4413 15.1852 1.79131
9232 1 84.2498 15.2786 3.78906
2835 1 86.3611 12.9443 0.913993
5399 1 90.9177 14.0586 0.19453
2311 1 87.6034 13.3749 2.92939
7320 1 90.0616 14.3976 2.88224
6895 1 89.4836 12.4475 1.4493
6348 1 92.9208 13.6074 1.99503
5875 1 94.4187 12.6534 0.408181
6625 1 95.0862 14.8885 1.75173
2266 1 94.6978 13.0386 3.75038
1855 1 91.8673 11.9271 0.566109
882 1 97.1793 12.4074 3.02606
6929 1 99.0799 14.563 3.06225
6639 1 97.5256 13.875 0.954997
3693 1 99.676 12.4203 1.0805
3328 1 102.3292 11.9607 0.158903
2739 1 100.0328 11.8947 3.88795
3431 1 101.1061 13.7408 2.58236
8269 1 105.809 12.3999 3.10102
3764 1 104.3196 12.0332 1.15311
2592 1 104.1135 14.7576 2.08108
10650 1 108.0322 12.6255 3.60887
10857 1 107.0856 13.6124 1.5961
8367 1 108.9837 12.2017 1.48194
10595 1 109.9728 14.0782 3.22287
2411 1 59.54983 19.4281 2.83068
7288 1 58.78834 19.2647 0.33253
1181 1 58.83173 17.3378 2.31282
5696 1 56.705807 16.8254 1.86268
10521 1 57.46113 18.7616 3.81976
10588 1 60.14987 16.5238 0.467834
2449 1 61.52027 17.1677 2.54459
561 1 62.51408 15.7275 0.722137
8018 1 61.44262 19.2046 0.944113
8827 1 64.10306 17.5295 0.79598
8641 1 63.39238 18.1177 3.18112
9504 1 67.0829 18.9461 0.0186512
10346 1 66.4785 16.7576 1.06346
9703 1 65.71739 18.0211 3.50959
3440 1 67.6957 16.6136 3.60054
572 1 70.3492 15.6719 1.9752
4124 1 69.2342 18.71 1.48892
2688 1 71.2248 18.8832 0.130805
7946 1 70.8633 17.3428 3.52298
6372 1 69.2036 16.6711 0.0651438
3598 1 73.4504 16.3796 3.03791
4070 1 72.808 16.8745 0.198865
2415 1 72.3757 19.1446 2.38476
7648 1 75.1609 16.8019 1.89598
6384 1 75.129 19.3881 0.579979
5087 1 77.9255 17.0424 3.13879
1032 1 79.1897 19.3426 3.51469
827 1 76.4724 17.0675 0.35592
10444 1 83.4742 17.6708 3.30983
1236 1 82.6428 19.1659 0.585373
4709 1 80.0815 16.3889 2.36938
9398 1 82.369 16.6132 0.727147
7924 1 86.5754 17.3812 2.16881
980 1 85.5628 19.252 3.37785
5403 1 87.5511 15.5622 3.4749
7824 1 85.4386 18.9077 1.11751
10036 1 89.1288 16.0205 1.6377
879 1 88.6634 18.5207 2.51725
8312 1 90.3686 18.8121 0.120487
1201 1 91.9691 15.8462 1.34074
10760 1 92.4961 16.7374 3.40261
9360 1 92.6355 19.0783 2.62442
2661 1 94.392 17.1496 1.83065
7531 1 98.6949 17.6906 3.82774
1972 1 97.3694 16.3417 2.09366
8229 1 95.7432 19.2687 1.72648
5953 1 99.0155 15.9745 0.218621
1826 1 97.915 18.6881 0.451193
994 1 102.1704 18.1307 1.23995
4337 1 99.9609 17.0582 1.94349
3723 1 102.0639 15.975 1.8833
9094 1 104.6584 17.9523 2.02836
1288 1 106.2127 15.8965 1.86683
3459 1 108.9224 15.977 1.53394
8321 1 109.3093 17.8107 0.117791
9176 1 107.5038 17.9379 2.00641
6905 1 109.4899 18.9442 3.03331
1562 1 57.81153 21.2805 2.68509
6751 1 58.93053 22.547 3.75455
10360 1 59.76026 21.7696 1.19665
4441 1 56.656148 19.7907 0.325175
5062 1 63.34227 20.962 0.425449
4263 1 62.5402 22.1653 2.57754
99 1 62.19295 20.3233 3.82501
1890 1 67.9497 21.8864 0.0155566
7191 1 65.78267 21.4407 3.59763
7956 1 67.1394 19.5705 2.57913
5687 1 64.90603 19.7391 1.89644
5322 1 65.56874 21.8582 1.12195
2968 1 69.7238 22.1283 1.43383
6714 1 70.3884 20.3382 2.9555
8293 1 69.1805 22.0791 3.74579
10443 1 71.4137 23.2513 0.183267
5440 1 72.5308 20.423 0.782464
4557 1 72.509 21.9046 2.72868
4703 1 74.9393 21.7133 1.89947
1929 1 76.2322 19.7264 2.51064
2206 1 77.7534 21.6603 3.12212
4260 1 76.7867 21.6221 0.0799946
2497 1 79.1021 19.7142 1.08259
4174 1 80.1143 21.6375 3.02106
9566 1 80.8151 21.1804 0.0591941
7909 1 81.1969 19.5348 2.45714
2823 1 83.4662 20.9874 2.14648
8268 1 82.1886 21.9826 3.57981
6432 1 81.1834 23.3217 1.59179
3721 1 86.0101 21.9197 0.914614
1948 1 85.7984 22.1279 3.30113
9834 1 87.669 20.022 0.775487
10183 1 88.1256 21.8415 1.89994
7684 1 90.2941 23.1002 2.28208
9719 1 90.3221 20.6045 2.60325
5886 1 94.5448 21.3423 3.8295
3030 1 92.6095 22.3134 1.75687
5238 1 91.7431 20.5371 0.612682
4962 1 94.0668 20.5045 0.691684
1066 1 96.8854 21.5317 0.724176
3120 1 95.425 22.5868 2.53567
8824 1 98.459 19.579 2.22913
5010 1 97.8742 22.5838 2.93057
3906 1 96.7313 19.8357 3.82663
8766 1 100.4 19.5676 0.192453
3694 1 101.6827 22.2957 0.0908793
2225 1 101.7913 22.8279 3.72308
4122 1 100.5549 19.7313 3.63221
10523 1 100.0582 21.6626 2.2107
5335 1 99.6073 23.2617 0.461466
9173 1 102.4404 20.1275 2.38298
1841 1 106.7782 21.7194 0.476292
10712 1 104.0149 21.9508 3.32758
6250 1 106.3097 19.4621 0.438717
731 1 104.534 21.5267 1.37115
10465 1 107.5313 20.5809 2.36782
6931 1 110.049 21.8291 1.61396
2707 1 109.0178 20.3254 0.216736
9524 1 108.4079 22.817 3.79634
7741 1 58.17382 25.5541 1.64432
10594 1 57.073376 23.457 2.32772
6099 1 60.20516 23.9492 0.261525
10272 1 56.5236829 27.2042 0.0619131
4578 1 60.5078 24.0485 2.61054
5327 1 60.65982 26.5604 1.56338
5577 1 64.19354 23.9929 2.48286
917 1 62.36598 25.1389 2.94712
5584 1 63.13097 23.6212 0.664815
3959 1 64.37805 26.7195 1.56621
4902 1 66.4647 25.1342 2.46483
8287 1 68.6496 26.7648 1.21525
9428 1 68.8279 24.4353 1.63627
4523 1 70.8702 24.0928 3.39578
6041 1 71.493 25.5692 1.78719
10072 1 68.2526 25.8437 3.66239
5738 1 73.3648 26.5943 0.0321634
6808 1 74.8006 26.5287 1.70142
354 1 75.7878 24.557 3.62641
6877 1 73.3451 24.2376 2.60476
10266 1 78.573 23.927 2.28261
5763 1 77.0201 26.593 2.75243
3954 1 76.3564 24.2007 1.31672
4835 1 79.1414 26.7747 1.0408
10503 1 80.8206 25.4381 2.24349
10107 1 83.3935 26.0248 1.96982
8475 1 87.0627 23.984 0.0420828
393 1 83.9343 23.7606 0.0270639
8978 1 83.7273 23.5585 2.34175
8812 1 85.7824 25.1787 3.06084
5714 1 86.0528 26.1427 0.726107
5978 1 84.1928 26.9394 0.00817773
9741 1 88.0923 24.1721 2.77118
1976 1 87.7357 26.6837 2.95031
7834 1 89.4865 25.0077 0.405377
5935 1 90.5737 26.1124 2.13013
8314 1 91.8013 24.5899 3.09729
10071 1 94.4326 24.2385 1.22977
2976 1 92.8331 26.3746 1.0105
2173 1 93.8213 26.033 3.3735
1771 1 91.698 23.6363 0.297721
9316 1 98.5519 24.8558 3.41512
7997 1 96.8056 23.8542 0.601511
6532 1 96.4634 26.557 3.00303
9056 1 98.4943 25.6839 0.940322
2445 1 102.9958 23.6753 1.93655
2921 1 100.6362 24.6693 2.22705
9941 1 100.6435 27.0606 0.224109
6414 1 102.7591 26.5924 1.82895
83 1 100.3491 26.6985 3.13922
1042 1 103.7487 25.537 3.49794
10717 1 105.3947 26.952 1.7699
2586 1 105.5822 24.4061 2.01996
5895 1 108.2377 26.8074 1.40231
1755 1 108.0791 23.696 1.63388
9033 1 110.135 24.8667 1.27284
3753 1 110.1575 26.5758 2.80404
4006 1 59.15389 28.2106 0.0239912
6309 1 56.783484 28.3151 1.72783
4730 1 58.8258 30.3366 2.10162
70 1 57.84611 27.4918 3.66796
1789 1 57.419081 30.6252 0.41694
9824 1 60.2143 28.8692 2.37067
777 1 61.65427 30.9275 2.35991
8878 1 63.99917 29.3923 2.9336
7889 1 62.25428 27.4564 3.16964
2809 1 61.65267 28.9302 0.568295
9945 1 64.62647 30.3162 0.420364
9527 1 66.28103 27.9167 2.78627
9453 1 66.6508 31.0304 2.73834
5733 1 68.2462 28.9003 1.38866
6608 1 69.7958 27.877 3.07027
3217 1 71.8448 28.9341 0.505252
2231 1 68.1581 29.7053 3.85243
1952 1 70.6834 30.5822 2.21155
9397 1 74.071 29.4183 2.08656
10602 1 72.6651 27.5338 3.07285
2880 1 76.1273 27.2461 0.116282
3713 1 75.9637 30.5236 0.70436
9061 1 77.5402 28.7966 2.31553
7473 1 82.1032 27.6174 3.59323
5034 1 80.0556 28.8831 2.30229
1392 1 79.9842 31.0189 2.39752
9654 1 82.2692 30.5429 3.08813
10663 1 81.7577 29.2697 0.654782
8422 1 86.2814 28.5185 1.04417
2039 1 84.3095 28.9472 2.50073
1885 1 84.629 29.6282 0.0709892
842 1 86.1913 30.7436 2.38163
1318 1 88.7655 30.8636 1.8837
9803 1 88.6693 27.3083 0.582955
3962 1 91.1132 30.4884 3.79694
8362 1 89.5229 28.4785 3.16078
791 1 93.6075 30.2923 2.1506
7125 1 93.557 28.334 3.43246
8259 1 94.4499 27.9376 0.860389
5383 1 91.7085 28.801 1.86315
10043 1 98.1486 30.2364 2.71894
7390 1 96.365 29.2681 1.78094
7915 1 98.8425 27.986 3.28733
1693 1 97.5194 28.0941 0.654502
10038 1 100.7184 29.7429 3.53978
10649 1 102.7099 30.3859 1.12645
2598 1 100.0166 30.7046 0.966483
8271 1 101.4767 28.3419 1.89947
1347 1 103.2609 29.2673 3.36156
7217 1 104.9317 30.7098 3.26836
2616 1 105.8315 29.1802 1.10489
7187 1 104.9652 27.5059 3.68199
10440 1 106.6406 30.9164 1.73983
9531 1 104.7317 30.9475 0.0671672
1008 1 109.0195 28.9215 1.07485
3353 1 107.2701 28.367 3.20826
5149 1 110.4435 29.8647 3.29793
10494 1 58.21486 32.5875 2.18978
5170 1 59.69092 33.3727 3.82535
4425 1 56.66721 33.4193 0.110276
2863 1 60.76695 34.8112 2.17207
217 1 60.43242 32.5401 0.588087
3436 1 63.25336 34.9242 0.993105
9128 1 62.38283 33.1159 2.57848
3188 1 62.47039 31.2151 0.0833451
7965 1 64.28797 31.7023 2.0277
2567 1 66.4686 31.745 0.171258
8051 1 65.88196 33.8588 2.21576
3006 1 69.0145 34.3215 2.40843
8238 1 71.1338 32.8562 2.67521
5417 1 68.1743 33.3873 0.147274
5942 1 68.843 31.9859 1.78419
6511 1 71.0493 34.9335 0.848733
9070 1 74.9165 33.4198 1.0706
8849 1 75.4916 31.6849 2.78062
955 1 74.0508 33.755 3.42839
8980 1 73.3703 31.4288 1.45456
8786 1 77.8752 31.4237 3.75128
9437 1 76.7102 33.6872 3.27287
8647 1 78.8994 33.7489 2.01243
6297 1 77.3766 32.4093 0.423291
641 1 81.27 33.7039 2.31642
6097 1 83.3467 32.1068 1.73656
1655 1 81.4265 31.8351 0.543002
149 1 85.1444 31.9292 0.0801493
8400 1 86.0586 33.9153 1.56687
9673 1 89.5712 32.4433 3.43947
2185 1 89.6375 33.3149 0.684217
4367 1 91.0296 31.5334 1.10807
3266 1 91.4779 33.3882 2.65967
2227 1 93.9632 33.1343 1.00889
2660 1 94.8954 34.5952 3.03173
10916 1 95.3843 31.8606 2.70185
4241 1 97.5394 34.4322 2.83479
9946 1 95.9877 31.9357 0.771828
2719 1 96.5731 34.5484 0.580832
3829 1 98.1351 32.665 1.74246
9341 1 100.2328 33.4251 0.244864
5205 1 100.3972 32.3521 2.91664
6244 1 101.3048 34.2194 2.19667
4132 1 102.6417 31.9464 3.02013
10974 1 105.8419 33.9127 0.0733581
10402 1 106.8047 33.1321 2.62662
2099 1 103.7147 33.5074 0.811368
5009 1 109.5872 31.634 1.58655
3692 1 110.4782 32.9362 3.22867
22 1 108.0279 32.7136 0.34873
7238 1 109.831 34.728 1.49985
7708 1 58.79512 37.461 1.95278
10603 1 56.5335349 37.1 2.08018
8603 1 59.35264 36.371 3.83307
6949 1 58.00285 35.0479 1.94589
7304 1 63.69031 38.3063 1.85677
9087 1 61.49302 38.5502 3.2814
7669 1 62.66944 36.1937 2.82655
2292 1 60.89612 36.8258 1.34454
6407 1 65.33756 36.6313 1.35688
10797 1 67.4816 35.2202 0.817852
7149 1 67.1841 37.949 3.04361
1497 1 64.9095 38.2417 3.76224
137 1 71.4863 35.3976 3.03606
4842 1 68.9268 37.0817 1.67719
5098 1 69.1152 38.894 0.553126
3119 1 70.781 37.3471 0.00410418
6126 1 71.2384 38.2973 2.38119
408 1 74.6407 35.5143 0.210382
8950 1 73.1002 37.1354 0.870491
1872 1 73.7116 36.9449 3.58247
705 1 75.6711 35.6533 2.52841
10138 1 78.1434 35.9384 3.11638
8104 1 78.3186 37.4671 1.01929
8141 1 76.3288 38.4354 2.23681
10806 1 79.1788 38.43 3.87897
7608 1 80.6738 38.202 1.5915
759 1 81.7629 36.4652 3.17703
1943 1 83.658 35.0577 1.97425
2930 1 83.2444 37.2383 0.721054
5325 1 84.2242 37.683 3.04429
9994 1 85.5842 36.5706 1.07406
1791 1 85.6081 35.0291 3.37371
3317 1 87.7807 36.626 3.37373
3688 1 89.991 37.9047 2.93872
10541 1 90.6347 36.9372 1.14359
9211 1 88.2015 37.6867 0.592108
3004 1 89.9849 35.4744 2.6653
1184 1 88.1209 35.0604 1.48329
4096 1 92.2814 37.2131 3.72044
8549 1 94.8933 36.8254 1.33781
2229 1 92.841 36.6612 0.637594
2915 1 94.7723 38.0451 3.31813
6795 1 92.5221 35.1764 2.59768
3075 1 96.9453 36.4382 3.49883
8288 1 98.4232 38.4963 3.14359
1075 1 97.3228 36.7751 1.35402
3207 1 100.9766 37.2771 3.85808
1637 1 100.2331 37.5583 1.2009
2994 1 99.4045 35.4557 1.51806
6640 1 102.6706 36.7663 2.29587
8395 1 106.1611 35.8509 2.01525
7108 1 105.9547 38.759 2.91523
2575 1 104.319 35.0199 2.59186
2869 1 104.6828 37.4266 0.880718
287 1 110.1151 35.3585 3.85504
1779 1 108.3076 37.7886 1.53665
6319 1 58.85792 40.2257 1.3666
5868 1 57.088873 41.3474 2.88094
2194 1 57.58846 39.1265 3.81835
9326 1 59.87514 40.4364 3.67274
10946 1 56.63462 39.4183 1.15475
8090 1 61.13052 39.0733 0.658647
1565 1 62.1101 40.7512 1.90923
7439 1 63.58494 40.8546 3.53316
9440 1 60.64438 41.4636 0.112982
7950 1 65.63541 40.2402 2.64307
7416 1 67.4451 41.3985 1.83147
5641 1 64.24988 39.7483 0.110604
7330 1 66.7047 39.4539 0.800029
1588 1 65.89081 42.5137 0.673904
9188 1 68.9045 39.1871 3.4415
3135 1 69.949 41.4638 2.21661
3510 1 70.2683 41.5269 0.221907
8891 1 74.018 38.9467 3.26855
4121 1 74.8878 40.7034 1.31368
6713 1 72.2838 41.1151 3.61923
7170 1 75.2817 41.6667 3.67994
5643 1 72.5113 39.9462 0.154595
5199 1 77.7071 42.4359 2.85741
4324 1 76.9465 42.2345 0.499176
7760 1 78.3465 40.2991 1.38059
451 1 80.1389 40.476 3.23613
3391 1 81.2356 40.7826 0.364329
1460 1 83.0905 39.5125 2.11445
1600 1 79.9279 42.6041 0.0462679
7725 1 82.4237 42.3119 1.90994
2900 1 84.6718 41.3408 2.16589
6933 1 87.5008 41.4416 2.40736
2530 1 87.214 38.9513 2.58977
3691 1 86.6515 40.3671 0.11067
8445 1 85.064 42.6689 0.510193
6762 1 90.6291 39.9601 1.20986
973 1 90.4251 41.8346 3.20148
9329 1 94.5978 42.0999 0.678733
4775 1 94.3695 40.3225 2.69851
2062 1 92.0613 39.7896 3.25604
4435 1 92.7187 42.3513 2.37816
7929 1 92.1914 41.6771 0.268153
10624 1 93.022 39.3934 0.764263
2013 1 96.1994 42.2304 2.70936
4202 1 96.2707 39.3103 1.92155
9519 1 98.8326 39.5704 0.985187
1409 1 96.8279 40.9641 0.541789
7367 1 98.3061 40.9268 2.93151
6441 1 102.0248 41.5407 3.43739
6053 1 102.5503 39.3389 3.27994
4230 1 102.8163 41.6759 1.02999
8219 1 100.0253 41.5475 1.32876
3415 1 101.5953 39.8425 0.403818
436 1 106.1931 41.9118 0.599584
10119 1 104.9339 40.5102 2.01137
10323 1 104.8234 42.4058 2.89825
1312 1 106.9734 39.3534 0.0630376
1961 1 107.3538 40.4758 2.34556
4806 1 108.9913 41.1284 1.24523
1129 1 108.8844 42.6527 3.51114
5435 1 109.7442 39.9377 3.39645
2431 1 57.46123 43.4803 1.99954
10539 1 59.84903 46.0327 3.21796
1025 1 59.80393 43.1151 3.60151
7596 1 61.83982 43.1657 2.24659
1674 1 63.44748 45.397 1.21993
7391 1 60.46622 45.1894 0.358676
10445 1 64.76805 45.3269 3.62549
6358 1 66.05635 45.0146 1.43146
7801 1 67.248 44.6026 3.27739
5352 1 64.24199 42.9602 2.25313
773 1 69.5875 43.7025 2.50394
9982 1 69.773 43.8229 0.123697
6195 1 68.5202 46.6276 2.22444
5840 1 70.9153 45.5273 1.34148
8588 1 71.9715 43.0557 1.3191
372 1 73.3461 45.4101 1.56679
7333 1 73.4233 43.18 3.41125
1434 1 74.4626 43.0418 0.788909
10897 1 75.5365 46.6764 0.147645
6469 1 76.1481 44.2581 3.5704
5225 1 78.5557 44.4077 1.20445
7035 1 76.2187 44.5357 0.794519
10025 1 82.0221 43.999 0.0547322
2443 1 80.9118 43.9894 2.55916
4601 1 83.5311 44.6253 2.74593
1963 1 85.7003 43.583 2.59854
8027 1 87.5553 43.819 1.1286
6722 1 85.8107 46.5255 3.86119
9401 1 83.9592 44.8012 0.377805
2657 1 85.8105 45.752 1.82104
782 1 88.3024 45.5065 3.50859
7334 1 89.7624 43.9597 2.87445
1344 1 91.0036 46.3985 2.48927
4826 1 88.883 45.5701 0.585775
5115 1 89.7624 43.5574 0.19025
2981 1 91.4327 44.67 0.956578
3358 1 93.4815 44.2363 1.96535
722 1 93.7197 46.045 3.71351
2407 1 95.8532 44.7966 2.04698
2780 1 97.9434 46.1854 2.18789
4669 1 98.3457 43.4432 1.70592
3389 1 102.0434 43.7158 3.88647
4271 1 100.4422 46.0326 2.50678
8355 1 101.1031 43.7427 1.85291
624 1 106.0776 44.3661 2.50975
80 1 104.0165 43.6123 0.742467
1458 1 103.5337 45.1196 2.75095
43 1 110.6796 45.8402 2.51835
6245 1 107.75 43.2559 1.48308
9991 1 108.3517 45.807 2.12589
4289 1 110.1287 44.0472 0.852705
6180 1 58.51871 47.3712 1.52697
5553 1 59.70656 49.0498 2.66175
2307 1 57.008091 49.2052 1.7761
2084 1 61.75741 46.735 2.25613
4141 1 64.17849 47.3264 2.05107
3176 1 62.44519 49.2093 2.19295
6226 1 61.043 48.7194 0.713945
610 1 63.95729 50.3482 3.79512
2569 1 65.91709 49.8009 1.91907
8791 1 66.972 47.4809 1.02797
382 1 65.15425 48.5897 0.0453276
4941 1 68.9852 49.0835 1.06076
8108 1 69.2529 48.1306 3.78491
4606 1 70.7936 47.9695 2.71745
841 1 71.1761 50.1638 1.29945
4875 1 75.2123 48.9824 2.88746
2909 1 75.2076 46.6861 2.40265
1182 1 72.3539 48.0123 1.43335
9827 1 77.6744 46.7763 2.0289
950 1 77.8969 49.0263 1.23552
1661 1 79.7947 47.9707 0.903328
7241 1 78.6732 47.7712 3.86092
5153 1 82.8657 46.9049 3.80021
6721 1 83.2782 50.4706 1.23996
8404 1 81.9658 46.7409 1.21387
598 1 81.2576 49.2379 1.89026
1089 1 83.8656 47.8469 1.60656
6618 1 87.4165 47.7839 3.03925
5786 1 85.2433 49.7197 2.47955
2637 1 88.8359 49.2065 3.46065
6202 1 89.7612 47.5927 1.01962
8951 1 89.6913 50.5377 1.65639
5429 1 87.8719 48.7871 0.726653
4483 1 93.1193 46.9834 1.55485
9296 1 91.9463 48.622 0.617763
4064 1 95.3373 47.3259 2.06956
5031 1 93.654 49.5334 2.84985
4210 1 91.5771 48.0236 3.69546
2288 1 96.1784 48.7961 0.659691
4688 1 97.4735 48.5575 3.10571
9421 1 99.1887 47.7498 0.121156
10122 1 100.3509 48.6356 2.18315
4481 1 102.4023 47.4569 1.96267
5962 1 99.5961 50.2529 0.581966
4115 1 106.0017 46.9076 3.09799
7174 1 104.0656 49.7736 1.36183
6775 1 105.9655 49.3398 2.98529
5950 1 104.5084 46.9988 1.25666
3853 1 106.8636 47.8678 0.782019
5272 1 103.4863 49.0617 3.5459
4221 1 108.2883 49.4683 2.176
2397 1 109.5642 47.8669 1.29401
353 1 57.432009 54.2145 2.50325
4162 1 57.54396 51.5464 0.710298
2891 1 60.19954 53.4586 2.72523
9362 1 58.50924 51.6928 3.11411
8015 1 59.14282 52.9628 0.209499
6081 1 60.42692 51.0799 0.991628
9849 1 63.17209 51.6256 1.2848
7647 1 63.8264 53.6785 2.74765
4855 1 61.76756 52.0215 3.48014
5420 1 65.42095 52.1699 3.5263
1126 1 67.8624 50.8629 2.6001
4643 1 64.61032 53.1594 0.0693926
4154 1 66.9436 53.2482 1.49455
7842 1 68.8383 53.8692 3.75353
10953 1 68.2621 54.2921 0.00215789
7775 1 70.1564 52.9007 1.9438
6573 1 70.0125 51.2783 3.7052
10306 1 68.1995 51.8646 0.464882
10200 1 72.3536 52.6001 1.30423
5016 1 74.7857 51.5497 2.67511
7991 1 74.9115 53.1534 0.384401
6445 1 75.2787 50.8226 0.204101
3013 1 72.5071 51.5188 3.39598
7517 1 79.0744 51.082 3.22037
6773 1 79.6345 50.8123 0.521088
10774 1 76.7744 53.291 2.4897
2389 1 77.0281 50.8676 2.22018
10700 1 79.0078 52.8434 1.81245
3418 1 82.0018 51.5299 2.99433
8113 1 83.1427 52.9231 0.437967
196 1 80.953 53.1658 0.570167
3987 1 84.2022 52.8502 2.99627
1156 1 87.4929 50.708 1.80616
6870 1 85.7187 52.2748 0.891255
10401 1 88.1579 53.2048 3.02862
7892 1 90.9353 53.1562 2.42464
1303 1 89.2385 52.6756 0.396583
3292 1 91.8434 52.5957 0.291422
6927 1 91.7832 50.7446 2.46623
5243 1 93.7971 53.7316 1.37914
10623 1 95.1396 51.8942 1.09962
3787 1 97.3686 53.1732 2.29519
1125 1 98.4914 50.615 3.62245
2746 1 95.6422 50.9083 3.24483
10012 1 97.5712 50.8408 1.14751
3928 1 101.8349 50.738 0.0630885
818 1 99.5277 52.5843 2.19507
4104 1 101.2111 50.8154 3.22601
3867 1 101.3624 54.146 1.46335
237 1 106.2248 54.0767 2.41705
7344 1 103.4601 52.3262 1.85109
1847 1 105.4833 51.9563 3.2113
8564 1 106.2 50.6023 0.632309
7503 1 108.1705 52.0009 2.47766
2872 1 110.5905 52.139 3.37486
9851 1 109.5148 52.82 0.51061
5544 1 58.32749 0.886336 6.36681
835 1 58.67076 2.81315 4.44078
10950 1 56.56739 3.40285 4.04285
6760 1 57.97012 2.98341 6.86203
8567 1 60.52421 2.36954 6.03852
9170 1 63.05237 2.0141 5.86447
6925 1 66.5165 2.24036 5.57321
2631 1 64.45947 1.10361 7.44326
945 1 64.64866 0.848297 4.57013
4735 1 68.4823 1.38031 4.67992
3895 1 68.6322 3.82121 4.82462
4927 1 71.0308 3.37669 5.67828
9219 1 71.4753 1.17854 4.09688
1498 1 70.8314 1.5309 6.9007
328 1 74.9119 0.553377 5.01495
6558 1 72.8918 1.45087 5.953
8343 1 74.7775 3.02158 6.38349
1417 1 77.2001 3.49645 4.55126
177 1 78.4088 3.8342 6.51625
6684 1 79.4575 1.41468 5.9711
4040 1 76.9245 1.69449 6.36782
8446 1 82.4907 1.86903 5.84539
380 1 81.3892 3.74644 5.4637
6421 1 82.7471 0.0503973 4.08189
5951 1 81.1672 2.40863 7.57509
2605 1 87.0604 1.69186 5.17665
1843 1 84.5828 1.60225 3.97373
9019 1 83.9446 0.332506 6.9124
318 1 86.9574 0.223777 7.40282
8816 1 89.74 2.38013 5.12564
2943 1 91.0028 1.36506 7.10007
6506 1 88.6183 2.27707 7.40052
2054 1 91.7094 0.756795 3.97981
2011 1 93.4263 1.14528 5.70273
8655 1 92.6041 2.94517 4.52486
5471 1 98.0608 0.145993 4.2796
2914 1 96.107 3.65483 7.77475
9337 1 95.9251 1.77968 6.16527
10070 1 98.9744 2.47743 4.99511
4686 1 98.1833 2.11748 7.44111
3901 1 101.6265 2.47465 4.49282
319 1 100.4179 0.190614 6.33387
6304 1 104.5742 1.82149 6.98014
3472 1 103.1668 0.866091 6.054
3624 1 105.7691 3.10999 5.73026
4616 1 107.9741 1.47283 6.32746
9359 1 110.9052 0.939939 4.71012
5647 1 107.069 0.765126 4.4871
4531 1 109.8015 3.44801 6.18398
5022 1 110.4963 1.09002 7.25509
5052 1 59.85292 7.47775 7.70549
7185 1 57.239477 7.60983 6.99927
342 1 60.06646 7.26011 5.25883
7047 1 57.18205 4.91629 5.67334
8325 1 59.74482 4.92677 4.26302
5976 1 59.17933 5.17092 6.73051
3903 1 57.339673 6.52998 4.10551
1220 1 62.48917 4.14466 4.99445
5354 1 62.65005 6.55943 3.95954
10233 1 63.98303 7.3374 6.14269
9633 1 60.87967 4.20117 7.28824
8228 1 63.13058 5.79763 7.76448
10186 1 66.08532 6.99179 6.28545
4267 1 67.1138 4.13563 7.07364
4075 1 65.56152 4.97607 4.61034
6748 1 67.9242 5.95045 5.24153
8209 1 64.57941 4.14898 6.78585
742 1 69.0137 7.49661 7.0005
9169 1 68.772 5.30689 7.61736
2342 1 70.4548 5.77974 5.17034
92 1 73.3561 6.26068 4.34093
5266 1 75.1917 5.62945 5.61038
9026 1 73.6659 6.43241 7.29039
72 1 73.1166 4.50081 5.97218
1216 1 79.3999 4.1308 4.16458
7027 1 77.7896 6.04556 4.65791
3361 1 76.8013 7.7769 6.31315
10263 1 77.7014 5.55943 7.39673
5981 1 80.9357 5.79373 4.26584
3772 1 82.018 5.57475 7.05529
1956 1 81.7589 7.74304 5.13926
8695 1 79.992 6.99331 6.6782
958 1 83.7789 6.11803 5.0494
6455 1 86.0183 4.9151 4.30719
6566 1 84.1705 4.00374 5.92695
9729 1 86.3578 7.08433 5.87578
1289 1 86.9443 3.99647 6.21891
4038 1 85.2824 5.80384 7.76153
9928 1 88.6796 4.21011 4.58852
1492 1 88.2914 6.70664 4.89892
3832 1 91.0764 7.50056 5.18838
8364 1 89.9617 3.99743 7.4066
4185 1 90.1139 6.47166 6.92264
6826 1 94.8698 4.51347 4.03291
2095 1 94.2103 3.95822 6.25248
6960 1 95.284 6.20724 5.76616
6363 1 92.6781 6.66791 7.16743
2947 1 91.506 4.99872 5.80648
2198 1 97.0553 6.20576 4.01224
9436 1 98.9389 4.55892 7.11976
6141 1 97.5425 5.9982 6.82682
9835 1 96.9502 3.97612 5.49962
1357 1 99.3554 4.59157 4.21953
3053 1 100.4358 6.56222 6.0677
10885 1 101.4856 3.92383 6.62625
8997 1 102.4714 6.68511 5.2516
5068 1 105.3835 6.12219 4.85475
2234 1 105.2591 6.94379 7.14114
10573 1 103.4103 4.54531 5.20051
6231 1 104.0636 4.41713 7.54081
9643 1 106.4503 4.70536 7.65862
3165 1 109.6178 6.85914 6.03231
7975 1 107.3454 4.64648 5.30798
399 1 107.6307 6.58726 6.73622
5109 1 59.47101 9.45244 7.31161
48 1 60.06187 10.351 5.14786
3187 1 57.60946 9.15761 5.09827
8609 1 61.90263 8.13987 5.61267
1264 1 63.81721 11.5421 4.80231
5546 1 62.09158 10.254 7.03416
1940 1 67.3105 9.02682 4.87672
901 1 64.73177 9.28285 5.44137
6915 1 66.9348 11.5529 4.97512
4084 1 66.8989 8.97048 7.39852
3795 1 65.57012 10.8737 7.69973
10213 1 68.0441 10.8246 7.33278
6415 1 71.9412 9.8556 4.26396
2049 1 68.9315 10.3671 4.24682
6317 1 70.0109 8.17703 4.57075
6112 1 70.1181 10.1214 6.38444
872 1 71.57 8.60409 7.55408
8190 1 72.6544 8.17019 5.76108
9361 1 74.5227 9.01842 5.18521
7786 1 75.1513 11.3542 5.28912
5700 1 79.3856 9.49486 5.65622
4550 1 77.1287 9.42908 4.84447
6615 1 76.5997 10.1405 7.07696
9693 1 81.5956 11.2787 7.48473
6590 1 80.7404 10.9556 4.48438