LAMMPS (22 Dec 2022)
OMP_NUM_THREADS environment is not set. Defaulting to 1 thread. (src/comm.cpp:98)
  using 1 OpenMP thread(s) per MPI task
# AuPd nanoparticle, heating
#1 general
units		metal
dimension	3
atom_style      atomic
neighbor        0.3 bin

#2 structure
boundary	p p p
read_data	DosFases_Pd.lmp
Reading data file ...
  orthogonal box = (0 0 0) to (110.92 54.46 54.46)
  1 by 1 by 1 MPI processor grid
  reading atoms ...
  21952 atoms
  read_data CPU = 0.054 seconds


#3 variables
# Variables que controlan extension de simulacion
variable        tstep equal 0.001
variable nramp equal 200000
variable nequil equal 100000
variable nstat equal 100000
variable ntherm equal v_nequil/10
variable ndump equal v_nstat/20

# temperatura de melting
variable   tempm equal 1300
variable 	natoms equal "count(all)"
variable	temp0 equal 1.0
variable    	temp1 equal 1000
variable tempa equal v_tempm-50
variable    tempb equal v_tempm+50
variable    	temp2 equal 1700
variable n1 equal (v_tempa-v_temp1)/50
variable n2 equal (v_tempb-v_tempa)/50
variable n3 equal (v_temp2-v_tempb)/50
variable	pressure equal 0.0


#4 potentials
pair_style eam
pair_coeff * * Pd_u3.eam
Reading eam potential file Pd_u3.eam with DATE: 2007-06-11

#5 optimize at 0 K
#dump           1 all custom 1 dump.minimization id type x y z
#fix		1 all box/relax dilate all #Para relajar la caja
#min_style	cg
#minimize	1.0e-6 1.06e-6 10000 10000
#run 1
#undump		1
#unfix		1

#6 optimize at T=1
compute		peratom all pe/atom
reset_timestep	0
timestep	${tstep}
timestep	0.001

#Se generan velocidades aleatorias
velocity	all create ${temp0} 12345 mom yes rot yes
velocity	all create 1 12345 mom yes rot yes

#Se realiza NPT
fix             1 all npt temp ${temp0} ${temp0} 0.1 iso 0.0 0.0 1.0
fix             1 all npt temp 1 ${temp0} 0.1 iso 0.0 0.0 1.0
fix             1 all npt temp 1 1 0.1 iso 0.0 0.0 1.0
dump            1 all custom ${ndump} dump.${temp0} id type x y z c_peratom fx fy fz
dump            1 all custom 5000 dump.${temp0} id type x y z c_peratom fx fy fz
dump            1 all custom 5000 dump.1 id type x y z c_peratom fx fy fz
dump_modify   	1 element Au
thermo		${ntherm}
thermo		10000
thermo_style	custom step temp pe

#neigh_modify    once yes
run		${nequil}
run		100000
Neighbor list info ...
  update: every = 1 steps, delay = 0 steps, check = yes
  max neighbors/atom: 2000, page size: 100000
  master list distance cutoff = 5.6
  ghost atom cutoff = 5.6
  binsize = 2.8, bins = 40 20 20
  1 neighbor lists, perpetual/occasional/extra = 1 0 0
  (1) pair eam, perpetual
      attributes: half, newton on
      pair build: half/bin/atomonly/newton
      stencil: half/bin/3d
      bin: standard
Per MPI rank memory allocation (min/avg/max) = 16.37 | 16.37 | 16.37 Mbytes
   Step          Temp          PotEng    
         0   1             -42795.99     
     10000   0.10294842    -83110.15     
     20000   0.99342189    -84237.167    
     30000   0.96429623    -84793.929    
     40000   0.993267      -84998.327    
     50000   0.93799969    -85176.909    
     60000   0.95450271    -85357.373    
     70000   0.48856959    -85738.142    
     80000   0.95826356    -85756.348    
     90000   1.0395299     -85762.107    
    100000   0.97897695    -85763.81     
Loop time of 2120.23 on 1 procs for 100000 steps with 21952 atoms

Performance: 4.075 ns/day, 5.890 hours/ns, 47.165 timesteps/s, 1.035 Matom-step/s
34.4% CPU use with 1 MPI tasks x 1 OpenMP threads

MPI task timing breakdown:
Section |  min time  |  avg time  |  max time  |%varavg| %total
---------------------------------------------------------------
Pair    | 1981.8     | 1981.8     | 1981.8     |   0.0 | 93.47
Neigh   | 24.03      | 24.03      | 24.03      |   0.0 |  1.13
Comm    | 12.176     | 12.176     | 12.176     |   0.0 |  0.57
Output  | 1.5914     | 1.5914     | 1.5914     |   0.0 |  0.08
Modify  | 88.204     | 88.204     | 88.204     |   0.0 |  4.16
Other   |            | 12.47      |            |       |  0.59

Nlocal:          21952 ave       21952 max       21952 min
Histogram: 1 0 0 0 0 0 0 0 0 0
Nghost:          11815 ave       11815 max       11815 min
Histogram: 1 0 0 0 0 0 0 0 0 0
Neighs:         591469 ave      591469 max      591469 min
Histogram: 1 0 0 0 0 0 0 0 0 0

Total # of neighbors = 591469
Ave neighs/atom = 26.943741
Neighbor list builds = 1422
Dangerous builds = 4
unfix		1
undump      1

#7 calentamiento
reset_timestep	0

#Se generan velocidades aleatorias a T inicial
velocity	all create ${temp1} 12346 mom yes rot yes
velocity	all create 1000 12346 mom yes rot yes
variable	TEMPE equal "1.0*temp"
variable	PEA equal "pe/v_natoms"


#Comienza ciclo de calentamiento
print	  	"Heating starts, low temperature"
Heating starts, low temperature
label		loop
variable	a loop ${n1}
variable	a loop 5
variable	newtemp1 equal (v_a-1)*50+v_temp1
variable	newtemp2 equal v_newtemp1+50

#Rampa de T
print	  	"Temperature ramp starts"
Temperature ramp starts
fix             1 all npt temp ${newtemp1} ${newtemp2} 0.1 iso 0.0 0.0 1.0
fix             1 all npt temp 1000 ${newtemp2} 0.1 iso 0.0 0.0 1.0
fix             1 all npt temp 1000 1050 0.1 iso 0.0 0.0 1.0
run		${nramp}
run		200000
Per MPI rank memory allocation (min/avg/max) = 12.51 | 12.51 | 12.51 Mbytes
   Step          Temp          PotEng    
         0   1000          -85763.81     
     10000   1013.0485     -82627.846    
     20000   1009.6347     -82595.845    
     30000   1003.0439     -82623.268    
     40000   1005.5592     -82628.774    
     50000   1016.5147     -82589.735    
     60000   1007.7007     -82636.719    
     70000   1024.0697     -82577.852    
     80000   1012.8982     -82592.566    
     90000   1031.6225     -82548.539    
    100000   1035.8725     -82566.127    
    110000   1022.5196     -82559.293    
    120000   1038.569      -82516.691    
    130000   1036.269      -82549.55     
    140000   1036.2195     -82521.613    
    150000   1043.4631     -82532.505    
    160000   1038.8372     -82486.006    
    170000   1045.5618     -82462.149    
    180000   1052.7668     -82472.052    
    190000   1051.6436     -82459.241    
    200000   1059.6605     -82448.916    
Loop time of 4382.89 on 1 procs for 200000 steps with 21952 atoms

Performance: 3.943 ns/day, 6.087 hours/ns, 45.632 timesteps/s, 1.002 Matom-step/s
63.9% CPU use with 1 MPI tasks x 1 OpenMP threads

MPI task timing breakdown:
Section |  min time  |  avg time  |  max time  |%varavg| %total
---------------------------------------------------------------
Pair    | 3849.2     | 3849.2     | 3849.2     |   0.0 | 87.82
Neigh   | 342.74     | 342.74     | 342.74     |   0.0 |  7.82
Comm    | 23.949     | 23.949     | 23.949     |   0.0 |  0.55
Output  | 0.001329   | 0.001329   | 0.001329   |   0.0 |  0.00
Modify  | 145.08     | 145.08     | 145.08     |   0.0 |  3.31
Other   |            | 21.87      |            |       |  0.50

Nlocal:          21952 ave       21952 max       21952 min
Histogram: 1 0 0 0 0 0 0 0 0 0
Nghost:          12133 ave       12133 max       12133 min
Histogram: 1 0 0 0 0 0 0 0 0 0
Neighs:         533222 ave      533222 max      533222 min
Histogram: 1 0 0 0 0 0 0 0 0 0

Total # of neighbors = 533222
Ave neighs/atom = 24.290361
Neighbor list builds = 17816
Dangerous builds = 0
unfix		1

#Equilibrio a nueva T
print	  	"Equilibration starts"
Equilibration starts
fix		2 all npt temp ${newtemp2} ${newtemp2} 0.1 iso 0.0 0.0 1.0
fix		2 all npt temp 1050 ${newtemp2} 0.1 iso 0.0 0.0 1.0
fix		2 all npt temp 1050 1050 0.1 iso 0.0 0.0 1.0
run 		${nequil}
run 		100000
Per MPI rank memory allocation (min/avg/max) = 12.51 | 12.51 | 12.51 Mbytes
   Step          Temp          PotEng    
    200000   1059.6605     -82448.916    
    210000   1048.6894     -82467.659    
    220000   1048.2385     -82498.613    
    230000   1045.389      -82497.158    
    240000   1054.1748     -82470.639    
    250000   1050.7751     -82441.361    
    260000   1043.2041     -82473.33     
    270000   1046.0187     -82483.545    
    280000   1047.4093     -82467.995    
    290000   1045.5162     -82446.136    
    300000   1053.1214     -82498.738    
Loop time of 1921.09 on 1 procs for 100000 steps with 21952 atoms

Performance: 4.497 ns/day, 5.336 hours/ns, 52.054 timesteps/s, 1.143 Matom-step/s
91.9% CPU use with 1 MPI tasks x 1 OpenMP threads

MPI task timing breakdown:
Section |  min time  |  avg time  |  max time  |%varavg| %total
---------------------------------------------------------------
Pair    | 1687.7     | 1687.7     | 1687.7     |   0.0 | 87.85
Neigh   | 161.2      | 161.2      | 161.2      |   0.0 |  8.39
Comm    | 8.557      | 8.557      | 8.557      |   0.0 |  0.45
Output  | 0.000609   | 0.000609   | 0.000609   |   0.0 |  0.00
Modify  | 55.196     | 55.196     | 55.196     |   0.0 |  2.87
Other   |            | 8.462      |            |       |  0.44

Nlocal:          21952 ave       21952 max       21952 min
Histogram: 1 0 0 0 0 0 0 0 0 0
Nghost:          12126 ave       12126 max       12126 min
Histogram: 1 0 0 0 0 0 0 0 0 0
Neighs:         534085 ave      534085 max      534085 min
Histogram: 1 0 0 0 0 0 0 0 0 0

Total # of neighbors = 534085
Ave neighs/atom = 24.329674
Neighbor list builds = 9013
Dangerous builds = 0
unfix		2

#Se colecta estadistica
print	  	"Stats collecting starts"
Stats collecting starts
fix		3 all npt temp ${newtemp2} ${newtemp2} 0.1 iso 0.0 0.0 1.0
fix		3 all npt temp 1050 ${newtemp2} 0.1 iso 0.0 0.0 1.0
fix		3 all npt temp 1050 1050 0.1 iso 0.0 0.0 1.0
dump            3 all custom ${ndump} dump.${newtemp2} id type x y z c_peratom fx fy fz
dump            3 all custom 5000 dump.${newtemp2} id type x y z c_peratom fx fy fz
dump            3 all custom 5000 dump.1050 id type x y z c_peratom fx fy fz
dump_modify   	3 element Au
run		${nstat}
run		100000
Per MPI rank memory allocation (min/avg/max) = 16.77 | 16.77 | 16.77 Mbytes
   Step          Temp          PotEng    
    300000   1053.1214     -82498.738    
    310000   1046.49       -82478.76     
    320000   1049.9616     -82444.772    
    330000   1040.8271     -82466.034    
    340000   1045.402      -82461.082    
    350000   1037.3342     -82503.864    
    360000   1040.9512     -82493.915    
    370000   1043.1656     -82497.424    
    380000   1045.6099     -82456.949    
    390000   1061.6272     -82491.181    
    400000   1055.2776     -82451.706    
Loop time of 1928.99 on 1 procs for 100000 steps with 21952 atoms

Performance: 4.479 ns/day, 5.358 hours/ns, 51.840 timesteps/s, 1.138 Matom-step/s
91.9% CPU use with 1 MPI tasks x 1 OpenMP threads

MPI task timing breakdown:
Section |  min time  |  avg time  |  max time  |%varavg| %total
---------------------------------------------------------------
Pair    | 1693.6     | 1693.6     | 1693.6     |   0.0 | 87.80
Neigh   | 161.81     | 161.81     | 161.81     |   0.0 |  8.39
Comm    | 8.5251     | 8.5251     | 8.5251     |   0.0 |  0.44
Output  | 1.2817     | 1.2817     | 1.2817     |   0.0 |  0.07
Modify  | 55.295     | 55.295     | 55.295     |   0.0 |  2.87
Other   |            | 8.489      |            |       |  0.44

Nlocal:          21952 ave       21952 max       21952 min
Histogram: 1 0 0 0 0 0 0 0 0 0
Nghost:          12110 ave       12110 max       12110 min
Histogram: 1 0 0 0 0 0 0 0 0 0
Neighs:         533809 ave      533809 max      533809 min
Histogram: 1 0 0 0 0 0 0 0 0 0

Total # of neighbors = 533809
Ave neighs/atom = 24.317101
Neighbor list builds = 9037
Dangerous builds = 0
unfix		3
undump		3

#if "${newtemp2} > ${tempa}" then "jump SELF break"
next a
jump SELF loop
variable	a loop ${n1}
variable	a loop 5
variable	newtemp1 equal (v_a-1)*50+v_temp1
variable	newtemp2 equal v_newtemp1+50

#Rampa de T
print	  	"Temperature ramp starts"
Temperature ramp starts
fix             1 all npt temp ${newtemp1} ${newtemp2} 0.1 iso 0.0 0.0 1.0
fix             1 all npt temp 1050 ${newtemp2} 0.1 iso 0.0 0.0 1.0
fix             1 all npt temp 1050 1100 0.1 iso 0.0 0.0 1.0
run		${nramp}
run		200000
Per MPI rank memory allocation (min/avg/max) = 12.51 | 12.51 | 12.51 Mbytes
   Step          Temp          PotEng    
    400000   1055.2776     -82451.706    
    410000   1048.7359     -82478.886    
    420000   1061.596      -82474.48     
    430000   1060.4722     -82453.054    
    440000   1050.2312     -82461.263    
    450000   1062.1887     -82451.798    
    460000   1081.3249     -82443.08     
    470000   1065.7311     -82395.19     
    480000   1083.7876     -82404.407    
    490000   1069.6906     -82385.567    
    500000   1078.5438     -82393.807    
    510000   1084.2101     -82361.637    
    520000   1082.1587     -82390.65     
    530000   1082.3441     -82343.152    
    540000   1090.8311     -82382.339    
    550000   1090.3669     -82335.627    
    560000   1103.0091     -82338.884    
    570000   1086.9134     -82364.123    
    580000   1098.0586     -82335.761    
    590000   1097.4917     -82302.866    
    600000   1094.2103     -82322.818    
Loop time of 3837.61 on 1 procs for 200000 steps with 21952 atoms

Performance: 4.503 ns/day, 5.330 hours/ns, 52.116 timesteps/s, 1.144 Matom-step/s
91.6% CPU use with 1 MPI tasks x 1 OpenMP threads

MPI task timing breakdown:
Section |  min time  |  avg time  |  max time  |%varavg| %total
---------------------------------------------------------------
Pair    | 3365.7     | 3365.7     | 3365.7     |   0.0 | 87.70
Neigh   | 327.15     | 327.15     | 327.15     |   0.0 |  8.52
Comm    | 17.218     | 17.218     | 17.218     |   0.0 |  0.45
Output  | 0.001202   | 0.001202   | 0.001202   |   0.0 |  0.00
Modify  | 110.6      | 110.6      | 110.6      |   0.0 |  2.88
Other   |            | 16.93      |            |       |  0.44

Nlocal:          21952 ave       21952 max       21952 min
Histogram: 1 0 0 0 0 0 0 0 0 0
Nghost:          12150 ave       12150 max       12150 min
Histogram: 1 0 0 0 0 0 0 0 0 0
Neighs:         533410 ave      533410 max      533410 min
Histogram: 1 0 0 0 0 0 0 0 0 0

Total # of neighbors = 533410
Ave neighs/atom = 24.298925
Neighbor list builds = 18241
Dangerous builds = 0
unfix		1

#Equilibrio a nueva T
print	  	"Equilibration starts"
Equilibration starts
fix		2 all npt temp ${newtemp2} ${newtemp2} 0.1 iso 0.0 0.0 1.0
fix		2 all npt temp 1100 ${newtemp2} 0.1 iso 0.0 0.0 1.0
fix		2 all npt temp 1100 1100 0.1 iso 0.0 0.0 1.0
run 		${nequil}
run 		100000
Per MPI rank memory allocation (min/avg/max) = 12.51 | 12.51 | 12.51 Mbytes
   Step          Temp          PotEng    
    600000   1094.2103     -82322.818    
    610000   1095.2177     -82301.65     
    620000   1100.5726     -82303.848    
    630000   1115.6668     -82285.994    
    640000   1102.5821     -82301.984    
    650000   1096.1921     -82319.683    
    660000   1107.3749     -82291.142    
    670000   1095.8318     -82289.739    
    680000   1102.2654     -82332.266    
    690000   1102.106      -82289.098    
    700000   1097.7434     -82323.634    
Loop time of 1925.89 on 1 procs for 100000 steps with 21952 atoms

Performance: 4.486 ns/day, 5.350 hours/ns, 51.924 timesteps/s, 1.140 Matom-step/s
91.6% CPU use with 1 MPI tasks x 1 OpenMP threads

MPI task timing breakdown:
Section |  min time  |  avg time  |  max time  |%varavg| %total
---------------------------------------------------------------
Pair    | 1687.5     | 1687.5     | 1687.5     |   0.0 | 87.62
Neigh   | 165.76     | 165.76     | 165.76     |   0.0 |  8.61
Comm    | 8.6147     | 8.6147     | 8.6147     |   0.0 |  0.45
Output  | 0.000615   | 0.000615   | 0.000615   |   0.0 |  0.00
Modify  | 55.513     | 55.513     | 55.513     |   0.0 |  2.88
Other   |            | 8.51       |            |       |  0.44

Nlocal:          21952 ave       21952 max       21952 min
Histogram: 1 0 0 0 0 0 0 0 0 0
Nghost:          12125 ave       12125 max       12125 min
Histogram: 1 0 0 0 0 0 0 0 0 0
Neighs:         532504 ave      532504 max      532504 min
Histogram: 1 0 0 0 0 0 0 0 0 0

Total # of neighbors = 532504
Ave neighs/atom = 24.257653
Neighbor list builds = 9224
Dangerous builds = 0
unfix		2

#Se colecta estadistica
print	  	"Stats collecting starts"
Stats collecting starts
fix		3 all npt temp ${newtemp2} ${newtemp2} 0.1 iso 0.0 0.0 1.0
fix		3 all npt temp 1100 ${newtemp2} 0.1 iso 0.0 0.0 1.0
fix		3 all npt temp 1100 1100 0.1 iso 0.0 0.0 1.0
dump            3 all custom ${ndump} dump.${newtemp2} id type x y z c_peratom fx fy fz
dump            3 all custom 5000 dump.${newtemp2} id type x y z c_peratom fx fy fz
dump            3 all custom 5000 dump.1100 id type x y z c_peratom fx fy fz
dump_modify   	3 element Au
run		${nstat}
run		100000
Per MPI rank memory allocation (min/avg/max) = 16.77 | 16.77 | 16.77 Mbytes
   Step          Temp          PotEng    
    700000   1097.7434     -82323.634    
    710000   1094.604      -82314.256    
    720000   1106.3028     -82318.381    
    730000   1115.4026     -82292.192    
    740000   1099.7215     -82298.121    
    750000   1103.4241     -82302.828    
    760000   1102.9122     -82287.326    
    770000   1092.2348     -82289.32     
    780000   1106.0901     -82306.36     
    790000   1093.8739     -82293.06     
    800000   1099.9875     -82310.718    
Loop time of 1919.75 on 1 procs for 100000 steps with 21952 atoms

Performance: 4.501 ns/day, 5.333 hours/ns, 52.090 timesteps/s, 1.143 Matom-step/s
92.0% CPU use with 1 MPI tasks x 1 OpenMP threads

MPI task timing breakdown:
Section |  min time  |  avg time  |  max time  |%varavg| %total
---------------------------------------------------------------
Pair    | 1680.6     | 1680.6     | 1680.6     |   0.0 | 87.54
Neigh   | 165.7      | 165.7      | 165.7      |   0.0 |  8.63
Comm    | 8.5454     | 8.5454     | 8.5454     |   0.0 |  0.45
Output  | 1.2801     | 1.2801     | 1.2801     |   0.0 |  0.07
Modify  | 55.108     | 55.108     | 55.108     |   0.0 |  2.87
Other   |            | 8.475      |            |       |  0.44

Nlocal:          21952 ave       21952 max       21952 min
Histogram: 1 0 0 0 0 0 0 0 0 0
Nghost:          12206 ave       12206 max       12206 min
Histogram: 1 0 0 0 0 0 0 0 0 0
Neighs:         532827 ave      532827 max      532827 min
Histogram: 1 0 0 0 0 0 0 0 0 0

Total # of neighbors = 532827
Ave neighs/atom = 24.272367
Neighbor list builds = 9229
Dangerous builds = 0
unfix		3
undump		3

#if "${newtemp2} > ${tempa}" then "jump SELF break"
next a
jump SELF loop
variable	a loop ${n1}
variable	a loop 5
variable	newtemp1 equal (v_a-1)*50+v_temp1
variable	newtemp2 equal v_newtemp1+50

#Rampa de T
print	  	"Temperature ramp starts"
Temperature ramp starts
fix             1 all npt temp ${newtemp1} ${newtemp2} 0.1 iso 0.0 0.0 1.0
fix             1 all npt temp 1100 ${newtemp2} 0.1 iso 0.0 0.0 1.0
fix             1 all npt temp 1100 1150 0.1 iso 0.0 0.0 1.0
run		${nramp}
run		200000
Per MPI rank memory allocation (min/avg/max) = 12.51 | 12.51 | 12.51 Mbytes
   Step          Temp          PotEng    
    800000   1099.9875     -82310.718    
    810000   1097.0913     -82352.638    
    820000   1104.9946     -82279.132    
    830000   1114.3224     -82274.832    
    840000   1116.0493     -82289.026    
    850000   1118.09       -82261.041    
    860000   1108.5328     -82237.666    
    870000   1119.2537     -82232.499    
    880000   1117.6856     -82248.04     
    890000   1126.7265     -82185.563    
    900000   1130.3089     -82243.799    
    910000   1123.0304     -82224.27     
    920000   1128.3749     -82215.639    
    930000   1133.1937     -82221.174    
    940000   1133.0538     -82109.528    
    950000   1131.3113     -82156.763    
    960000   1137.3268     -82123.727    
    970000   1145.9884     -82132.346    
    980000   1151.6909     -82141.184    
    990000   1139.7388     -82141.336    
   1000000   1165.2281     -82142.399    
Loop time of 3855.35 on 1 procs for 200000 steps with 21952 atoms

Performance: 4.482 ns/day, 5.355 hours/ns, 51.876 timesteps/s, 1.139 Matom-step/s
91.8% CPU use with 1 MPI tasks x 1 OpenMP threads

MPI task timing breakdown:
Section |  min time  |  avg time  |  max time  |%varavg| %total
---------------------------------------------------------------
Pair    | 3375.5     | 3375.5     | 3375.5     |   0.0 | 87.55
Neigh   | 335.16     | 335.16     | 335.16     |   0.0 |  8.69
Comm    | 17.233     | 17.233     | 17.233     |   0.0 |  0.45
Output  | 0.001185   | 0.001185   | 0.001185   |   0.0 |  0.00
Modify  | 110.52     | 110.52     | 110.52     |   0.0 |  2.87
Other   |            | 16.96      |            |       |  0.44

Nlocal:          21952 ave       21952 max       21952 min
Histogram: 1 0 0 0 0 0 0 0 0 0
Nghost:          12128 ave       12128 max       12128 min
Histogram: 1 0 0 0 0 0 0 0 0 0
Neighs:         532096 ave      532096 max      532096 min
Histogram: 1 0 0 0 0 0 0 0 0 0

Total # of neighbors = 532096
Ave neighs/atom = 24.239067
Neighbor list builds = 18637
Dangerous builds = 0uunfix		1

#Equilibrio a nueva T
print	  	"Equilibration starts"
Equilibration starts
fix		2 all npt temp ${newtemp2} ${newtemp2} 0.1 iso 0.0 0.0 1.0
fix		2 all npt temp 1150 ${newtemp2} 0.1 iso 0.0 0.0 1.0
fix		2 all npt temp 1150 1150 0.1 iso 0.0 0.0 1.0
run 		${nequil}
run 		100000
Per MPI rank memory allocation (min/avg/max) = 12.51 | 12.51 | 12.51 Mbytes
   Step          Temp          PotEng    
   1000000   1165.2281     -82142.399    
   1010000   1144.3211     -82114.318    
   1020000   1143.2789     -82121.056    
   1030000   1146.0534     -82132.305    
   1040000   1146.1298     -82111.113    
   1050000   1139.7381     -82094.601    
   1060000   1148.5642     -82121.386    
   1070000   1152.0286     -82109.858    
   1080000   1147.5163     -82097.393    
   1090000   1155.8403     -82127.904    
   1100000   1165.8507     -82145.374    
Loop time of 1927.57 on 1 procs for 100000 steps with 21952 atoms

Performance: 4.482 ns/day, 5.354 hours/ns, 51.879 timesteps/s, 1.139 Matom-step/s
91.7% CPU use with 1 MPI tasks x 1 OpenMP threads

MPI task timing breakdown:
Section |  min time  |  avg time  |  max time  |%varavg| %total
---------------------------------------------------------------
Pair    | 1684.9     | 1684.9     | 1684.9     |   0.0 | 87.41
Neigh   | 170.19     | 170.19     | 170.19     |   0.0 |  8.83
Comm    | 8.6882     | 8.6882     | 8.6882     |   0.0 |  0.45
Output  | 0.00063    | 0.00063    | 0.00063    |   0.0 |  0.00
Modify  | 55.247     | 55.247     | 55.247     |   0.0 |  2.87
Other   |            | 8.51       |            |       |  0.44

Nlocal:          21952 ave       21952 max       21952 min
Histogram: 1 0 0 0 0 0 0 0 0 0
Nghost:          12158 ave       12158 max       12158 min
Histogram: 1 0 0 0 0 0 0 0 0 0
Neighs:         532414 ave      532414 max      532414 min
Histogram: 1 0 0 0 0 0 0 0 0 0

Total # of neighbors = 532414
Ave neighs/atom = 24.253553
Neighbor list builds = 9443
Dangerous builds = 0uunfix		2

#Se colecta estadistica
print	  	"Stats collecting starts"
Stats collecting starts
fix		3 all npt temp ${newtemp2} ${newtemp2} 0.1 iso 0.0 0.0 1.0
fix		3 all npt temp 1150 ${newtemp2} 0.1 iso 0.0 0.0 1.0
fix		3 all npt temp 1150 1150 0.1 iso 0.0 0.0 1.0
dump            3 all custom ${ndump} dump.${newtemp2} id type x y z c_peratom fx fy fz
dump            3 all custom 5000 dump.${newtemp2} id type x y z c_peratom fx fy fz
dump            3 all custom 5000 dump.1150 id type x y z c_peratom fx fy fz
dump_modify   	3 element Au
run		${nstat}
run		100000
Per MPI rank memory allocation (min/avg/max) = 16.77 | 16.77 | 16.77 Mbytes
   Step          Temp          PotEng    
   1100000   1165.8507     -82145.374    
   1110000   1146.8154     -82138.132    
   1120000   1154.2975     -82134.327    
   1130000   1143.8193     -82089.789    
   1140000   1144.9406     -82096.646    
   1150000   1145.0208     -82126.931    
   1160000   1139.3502     -82097.1      
   1170000   1144.6948     -82130.597    
   1180000   1150.4045     -82141.795    
   1190000   1155.4234     -82096.13     
   1200000   1152.6274     -82139.701    
Loop time of 1924.21 on 1 procs for 100000 steps with 21952 atoms

Performance: 4.490 ns/day, 5.345 hours/ns, 51.969 timesteps/s, 1.141 Matom-step/s
91.7% CPU use with 1 MPI tasks x 1 OpenMP threads

MPI task timing breakdown:
Section |  min time  |  avg time  |  max time  |%varavg| %total
---------------------------------------------------------------
Pair    | 1681.2     | 1681.2     | 1681.2     |   0.0 | 87.37
Neigh   | 169.29     | 169.29     | 169.29     |   0.0 |  8.80
Comm    | 8.7629     | 8.7629     | 8.7629     |   0.0 |  0.46
Output  | 1.2816     | 1.2816     | 1.2816     |   0.0 |  0.07
Modify  | 55.148     | 55.148     | 55.148     |   0.0 |  2.87
Other   |            | 8.527      |            |       |  0.44

Nlocal:          21952 ave       21952 max       21952 min
Histogram: 1 0 0 0 0 0 0 0 0 0
Nghost:          12131 ave       12131 max       12131 min
Histogram: 1 0 0 0 0 0 0 0 0 0
Neighs:         532094 ave      532094 max      532094 min
Histogram: 1 0 0 0 0 0 0 0 0 0

Total # of neighbors = 532094
Ave neighs/atom = 24.238976
Neighbor list builds = 9411
Dangerous builds = 0uunfix		3
undump		3

#if "${newtemp2} > ${tempa}" then "jump SELF break"
next a
jump SELF loop
variable	a loop ${n1}
variable	a loop 5
variable	newtemp1 equal (v_a-1)*50+v_temp1
variable	newtemp2 equal v_newtemp1+50

#Rampa de T
print	  	"Temperature ramp starts"
Temperature ramp starts
fix             1 all npt temp ${newtemp1} ${newtemp2} 0.1 iso 0.0 0.0 1.0
fix             1 all npt temp 1150 ${newtemp2} 0.1 iso 0.0 0.0 1.0
fix             1 all npt temp 1150 1200 0.1 iso 0.0 0.0 1.0
run		${nramp}
run		200000
Per MPI rank memory allocation (min/avg/max) = 12.51 | 12.51 | 12.51 Mbytes
   Step          Temp          PotEng    
   1200000   1152.6274     -82139.701    
   1210000   1147.7202     -82119.787    
   1220000   1153.1741     -82105.822    
   1230000   1161.2745     -82139.662    
   1240000   1172.9014     -82102.817    
   1250000   1156.9603     -82053.451    
   1260000   1163.4704     -82066.481    
   1270000   1162.0581     -82057.957    
   1280000   1172.1463     -82085.44     
   1290000   1178.0758     -82050.599    
   1300000   1173.4732     -82073.254    
   1310000   1184.0171     -82015.67     
   1320000   1180.3455     -82038.878    
   1330000   1179.5264     -82033.033    
   1340000   1179.0707     -81972.855    
   1350000   1184.0825     -82006.8      
   1360000   1194.0046     -82023.5      
   1370000   1185.2859     -81952.03     
   1380000   1201.0098     -81987.036    
   1390000   1188.6232     -81949.333    
   1400000   1196.1678     -81952.64     
Loop time of 3858.47 on 1 procs for 200000 steps with 21952 atoms

Performance: 4.478 ns/day, 5.359 hours/ns, 51.834 timesteps/s, 1.138 Matom-step/s
91.9% CPU use with 1 MPI tasks x 1 OpenMP threads

MPI task timing breakdown:
Section |  min time  |  avg time  |  max time  |%varavg| %total
---------------------------------------------------------------
Pair    | 3369.4     | 3369.4     | 3369.4     |   0.0 | 87.32
Neigh   | 343.92     | 343.92     | 343.92     |   0.0 |  8.91
Comm    | 17.57      | 17.57      | 17.57      |   0.0 |  0.46
Output  | 0.001212   | 0.001212   | 0.001212   |   0.0 |  0.00
Modify  | 110.53     | 110.53     | 110.53     |   0.0 |  2.86
Other   |            | 17.07      |            |       |  0.44

Nlocal:          21952 ave       21952 max       21952 min
Histogram: 1 0 0 0 0 0 0 0 0 0
Nghost:          12080 ave       12080 max       12080 min
Histogram: 1 0 0 0 0 0 0 0 0 0
Neighs:         531317 ave      531317 max      531317 min
Histogram: 1 0 0 0 0 0 0 0 0 0

Total # of neighbors = 531317
Ave neighs/atom = 24.203581
Neighbor list builds = 19059
Dangerous builds = 0uunfix		1

#Equilibrio a nueva T
print	  	"Equilibration starts"
Equilibration starts
fix		2 all npt temp ${newtemp2} ${newtemp2} 0.1 iso 0.0 0.0 1.0
fix		2 all npt temp 1200 ${newtemp2} 0.1 iso 0.0 0.0 1.0
fix		2 all npt temp 1200 1200 0.1 iso 0.0 0.0 1.0
run 		${nequil}
run 		100000
Per MPI rank memory allocation (min/avg/max) = 12.51 | 12.51 | 12.51 Mbytes
   Step          Temp          PotEng    
   1400000   1196.1678     -81952.64     
   1410000   1197.9712     -81919.46     
   1420000   1199.7581     -81943.844    
   1430000   1205.293      -81922.547    
   1440000   1204.3268     -81972.268    
   1450000   1212.7577     -81936.891    
   1460000   1196.481      -81954.422    
   1470000   1193.4817     -81937.887    
   1480000   1193.3247     -81950.199    
   1490000   1189.061      -81941.462    
   1500000   1191.2299     -81938.25     
Loop time of 1925.39 on 1 procs for 100000 steps with 21952 atoms

Performance: 4.487 ns/day, 5.348 hours/ns, 51.938 timesteps/s, 1.140 Matom-step/s
92.1% CPU use with 1 MPI tasks x 1 OpenMP threads

MPI task timing breakdown:
Section |  min time  |  avg time  |  max time  |%varavg| %total
---------------------------------------------------------------
Pair    | 1679.2     | 1679.2     | 1679.2     |   0.0 | 87.22
Neigh   | 173.73     | 173.73     | 173.73     |   0.0 |  9.02
Comm    | 8.7793     | 8.7793     | 8.7793     |   0.0 |  0.46
Output  | 0.000595   | 0.000595   | 0.000595   |   0.0 |  0.00
Modify  | 55.109     | 55.109     | 55.109     |   0.0 |  2.86
Other   |            | 8.537      |            |       |  0.44

Nlocal:          21952 ave       21952 max       21952 min
Histogram: 1 0 0 0 0 0 0 0 0 0
Nghost:          12102 ave       12102 max       12102 min
Histogram: 1 0 0 0 0 0 0 0 0 0
Neighs:         531331 ave      531331 max      531331 min
Histogram: 1 0 0 0 0 0 0 0 0 0

Total # of neighbors = 531331
Ave neighs/atom = 24.204218
Neighbor list builds = 9613
Dangerous builds = 0uunfix		2

#Se colecta estadistica
print	  	"Stats collecting starts"
Stats collecting starts
fix		3 all npt temp ${newtemp2} ${newtemp2} 0.1 iso 0.0 0.0 1.0
fix		3 all npt temp 1200 ${newtemp2} 0.1 iso 0.0 0.0 1.0
fix		3 all npt temp 1200 1200 0.1 iso 0.0 0.0 1.0
dump            3 all custom ${ndump} dump.${newtemp2} id type x y z c_peratom fx fy fz
dump            3 all custom 5000 dump.${newtemp2} id type x y z c_peratom fx fy fz
dump            3 all custom 5000 dump.1200 id type x y z c_peratom fx fy fz
dump_modify   	3 element Au
run		${nstat}
run		100000
Per MPI rank memory allocation (min/avg/max) = 16.77 | 16.77 | 16.77 Mbytes
   Step          Temp          PotEng    
   1500000   1191.2299     -81938.25     
   1510000   1203.4647     -81927.804    
   1520000   1207.8235     -81930.079    
   1530000   1199.0238     -81985.27     
   1540000   1196.119      -81918.349    
   1550000   1212.2576     -81937.882    
   1560000   1195.7162     -81958.313    
   1570000   1207.8379     -81983.554    
   1580000   1194.7612     -81946.532    
   1590000   1200.441      -81972.001    
   1600000   1202.3519     -81952.709    
Loop time of 1932.05 on 1 procs for 100000 steps with 21952 atoms

Performance: 4.472 ns/day, 5.367 hours/ns, 51.759 timesteps/s, 1.136 Matom-step/s
91.8% CPU use with 1 MPI tasks x 1 OpenMP threads

MPI task timing breakdown:
Section |  min time  |  avg time  |  max time  |%varavg| %total
---------------------------------------------------------------
Pair    | 1684       | 1684       | 1684       |   0.0 | 87.16
Neigh   | 174.14     | 174.14     | 174.14     |   0.0 |  9.01
Comm    | 8.8058     | 8.8058     | 8.8058     |   0.0 |  0.46
Output  | 1.2918     | 1.2918     | 1.2918     |   0.0 |  0.07
Modify  | 55.217     | 55.217     | 55.217     |   0.0 |  2.86
Other   |            | 8.55       |            |       |  0.44

Nlocal:          21952 ave       21952 max       21952 min
Histogram: 1 0 0 0 0 0 0 0 0 0
Nghost:          12093 ave       12093 max       12093 min
Histogram: 1 0 0 0 0 0 0 0 0 0
Neighs:         531348 ave      531348 max      531348 min
Histogram: 1 0 0 0 0 0 0 0 0 0

Total # of neighbors = 531348
Ave neighs/atom = 24.204993
Neighbor list builds = 9616
Dangerous builds = 0uunfix		3
undump		3

#if "${newtemp2} > ${tempa}" then "jump SELF break"
next a
jump SELF loop
variable	a loop ${n1}
variable	a loop 5
variable	newtemp1 equal (v_a-1)*50+v_temp1
variable	newtemp2 equal v_newtemp1+50

#Rampa de T
print	  	"Temperature ramp starts"
Temperature ramp starts
fix             1 all npt temp ${newtemp1} ${newtemp2} 0.1 iso 0.0 0.0 1.0
fix             1 all npt temp 1200 ${newtemp2} 0.1 iso 0.0 0.0 1.0
fix             1 all npt temp 1200 1250 0.1 iso 0.0 0.0 1.0
run		${nramp}
run		200000
Per MPI rank memory allocation (min/avg/max) = 12.51 | 12.51 | 12.51 Mbytes
   Step          Temp          PotEng    
   1600000   1202.3519     -81952.709    
   1610000   1213.6996     -81974.153    
   1620000   1208.8686     -81943.892    
   1630000   1198.2676     -81938.921    
   1640000   1200.5119     -81928.14     
   1650000   1202.9282     -81889.338    
   1660000   1219.6319     -81870.154    
   1670000   1209.8069     -81886.336    
   1680000   1225.1846     -81893.768    
   1690000   1223.933      -81880.659    
   1700000   1219.9826     -81862.679    
   1710000   1217.0292     -81836.366    
   1720000   1230.7992     -81855.734    
   1730000   1228.7308     -81848.995    
   1740000   1227.2227     -81815.199    
   1750000   1237.2283     -81795.791    
   1760000   1227.6721     -81802.641    
   1770000   1239.7553     -81778.857    
   1780000   1242.1048     -81809.688    
   1790000   1233.6977     -81750.381    
   1800000   1251.1955     -81746.33     
Loop time of 3860.12 on 1 procs for 200000 steps with 21952 atoms

Performance: 4.477 ns/day, 5.361 hours/ns, 51.812 timesteps/s, 1.137 Matom-step/s
91.9% CPU use with 1 MPI tasks x 1 OpenMP threads

MPI task timing breakdown:
Section |  min time  |  avg time  |  max time  |%varavg| %total
---------------------------------------------------------------
Pair    | 3363.6     | 3363.6     | 3363.6     |   0.0 | 87.14
Neigh   | 351.6      | 351.6      | 351.6      |   0.0 |  9.11
Comm    | 17.582     | 17.582     | 17.582     |   0.0 |  0.46
Output  | 0.001244   | 0.001244   | 0.001244   |   0.0 |  0.00
Modify  | 110.22     | 110.22     | 110.22     |   0.0 |  2.86
Other   |            | 17.08      |            |       |  0.44

Nlocal:          21952 ave       21952 max       21952 min
Histogram: 1 0 0 0 0 0 0 0 0 0
Nghost:          12127 ave       12127 max       12127 min
Histogram: 1 0 0 0 0 0 0 0 0 0
Neighs:         529938 ave      529938 max      529938 min
Histogram: 1 0 0 0 0 0 0 0 0 0

Total # of neighbors = 529938
Ave neighs/atom = 24.140762
Neighbor list builds = 19409
Dangerous builds = 0uunfix		1

#Equilibrio a nueva T
print	  	"Equilibration starts"
Equilibration starts
fix		2 all npt temp ${newtemp2} ${newtemp2} 0.1 iso 0.0 0.0 1.0
fix		2 all npt temp 1250 ${newtemp2} 0.1 iso 0.0 0.0 1.0
fix		2 all npt temp 1250 1250 0.1 iso 0.0 0.0 1.0
run 		${nequil}
run 		100000
Per MPI rank memory allocation (min/avg/max) = 12.51 | 12.51 | 12.51 Mbytes
   Step          Temp          PotEng    
   1800000   1251.1955     -81746.33     
   1810000   1247.8209     -81775.98     
   1820000   1257.2487     -81772.473    
   1830000   1256.885      -81780.143    
   1840000   1262.8509     -81787.246    
   1850000   1241.9808     -81746.715    
   1860000   1239.7568     -81762.291    
   1870000   1252.4568     -81746.141    
   1880000   1245.8005     -81738.739    
   1890000   1245.8534     -81764.206    
   1900000   1247.0045     -81718.37     
Loop time of 1926.65 on 1 procs for 100000 steps with 21952 atoms

Performance: 4.484 ns/day, 5.352 hours/ns, 51.904 timesteps/s, 1.139 Matom-step/s
92.4% CPU use with 1 MPI tasks x 1 OpenMP threads

MPI task timing breakdown:
Section |  min time  |  avg time  |  max time  |%varavg| %total
---------------------------------------------------------------
Pair    | 1677.4     | 1677.4     | 1677.4     |   0.0 | 87.06
Neigh   | 176.93     | 176.93     | 176.93     |   0.0 |  9.18
Comm    | 8.7946     | 8.7946     | 8.7946     |   0.0 |  0.46
Output  | 0.000604   | 0.000604   | 0.000604   |   0.0 |  0.00
Modify  | 55.004     | 55.004     | 55.004     |   0.0 |  2.85
Other   |            | 8.554      |            |       |  0.44

Nlocal:          21952 ave       21952 max       21952 min
Histogram: 1 0 0 0 0 0 0 0 0 0
Nghost:          12162 ave       12162 max       12162 min
Histogram: 1 0 0 0 0 0 0 0 0 0
Neighs:         530508 ave      530508 max      530508 min
Histogram: 1 0 0 0 0 0 0 0 0 0

Total # of neighbors = 530508
Ave neighs/atom = 24.166727
Neighbor list builds = 9795
Dangerous builds = 0uunfix		2

#Se colecta estadistica
print	  	"Stats collecting starts"
Stats collecting starts
fix		3 all npt temp ${newtemp2} ${newtemp2} 0.1 iso 0.0 0.0 1.0
fix		3 all npt temp 1250 ${newtemp2} 0.1 iso 0.0 0.0 1.0
fix		3 all npt temp 1250 1250 0.1 iso 0.0 0.0 1.0
dump            3 all custom ${ndump} dump.${newtemp2} id type x y z c_peratom fx fy fz
dump            3 all custom 5000 dump.${newtemp2} id type x y z c_peratom fx fy fz
dump            3 all custom 5000 dump.1250 id type x y z c_peratom fx fy fz
dump_modify   	3 element Au
run		${nstat}
run		100000
Per MPI rank memory allocation (min/avg/max) = 16.77 | 16.77 | 16.77 Mbytes
   Step          Temp          PotEng    
   1900000   1247.0045     -81718.37     
   1910000   1254.4289     -81782.993    
   1920000   1243.9446     -81741.123    
   1930000   1244.0965     -81763.515    
   1940000   1256.1627     -81765.943    
   1950000   1249.0512     -81755.285    
   1960000   1256.9791     -81777.112    
   1970000   1246.9733     -81792.166    
   1980000   1249.508      -81726.908    
   1990000   1246.2931     -81786.202    
   2000000   1252.5737     -81761.831    
Loop time of 1932.03 on 1 procs for 100000 steps with 21952 atoms

Performance: 4.472 ns/day, 5.367 hours/ns, 51.759 timesteps/s, 1.136 Matom-step/s
92.2% CPU use with 1 MPI tasks x 1 OpenMP threads

MPI task timing breakdown:
Section |  min time  |  avg time  |  max time  |%varavg| %total
---------------------------------------------------------------
Pair    | 1681       | 1681       | 1681       |   0.0 | 87.01
Neigh   | 177.03     | 177.03     | 177.03     |   0.0 |  9.16
Comm    | 8.8409     | 8.8409     | 8.8409     |   0.0 |  0.46
Output  | 1.2743     | 1.2743     | 1.2743     |   0.0 |  0.07
Modify  | 55.283     | 55.283     | 55.283     |   0.0 |  2.86
Other   |            | 8.596      |            |       |  0.44

Nlocal:          21952 ave       21952 max       21952 min
Histogram: 1 0 0 0 0 0 0 0 0 0
Nghost:          12194 ave       12194 max       12194 min
Histogram: 1 0 0 0 0 0 0 0 0 0
Neighs:         531015 ave      531015 max      531015 min
Histogram: 1 0 0 0 0 0 0 0 0 0

Total # of neighbors = 531015
Ave neighs/atom = 24.189823
Neighbor list builds = 9773
Dangerous builds = 0uunfix		3
undump		3

#if "${newtemp2} > ${tempa}" then "jump SELF break"
next a
jump SELF loop

#label break
print	  	"Heating continues, close to melting"
Heating continues, close to melting
label		loop2
variable	b loop ${n2}
variable	b loop 2
variable	newtemp1 equal (v_b-1)*50+v_tempa
variable	newtemp2 equal v_newtemp1+50

#Rampa de T
print	  	"Temperature ramp starts"
Temperature ramp starts
fix             1 all npt temp ${newtemp1} ${newtemp2} 0.1 iso 0.0 0.0 1.0
fix             1 all npt temp 1250 ${newtemp2} 0.1 iso 0.0 0.0 1.0
fix             1 all npt temp 1250 1300 0.1 iso 0.0 0.0 1.0
run		${nramp}
run		200000
Per MPI rank memory allocation (min/avg/max) = 12.51 | 12.51 | 12.51 Mbytes
   Step          Temp          PotEng    
   2000000   1252.5737     -81761.831    
   2010000   1251.7602     -81760.206    
   2020000   1268.0461     -81718.887    
   2030000   1260.2168     -81721.02     
   2040000   1253.63       -81699.303    
   2050000   1264.4914     -81747.993    
   2060000   1271.475      -81720.568    
   2070000   1266.8035     -81693.179    
   2080000   1265.0656     -81695.65     
   2090000   1269.6319     -81635.264    
   2100000   1267.4427     -81632.189    
   2110000   1269.7914     -81626.799    
   2120000   1277.7539     -81693.689    
   2130000   1285.6001     -81643.802    
   2140000   1280.3455     -81620.177    
   2150000   1285.5683     -81607.561    
   2160000   1296.6881     -81611.651    
   2170000   1307.6169     -81609.271    
   2180000   1290.5933     -81540.319    
   2190000   1281.2083     -81536.325    
   2200000   1300.0754     -81557.804    
Loop time of 3862.63 on 1 procs for 200000 steps with 21952 atoms

Performance: 4.474 ns/day, 5.365 hours/ns, 51.778 timesteps/s, 1.137 Matom-step/s
92.0% CPU use with 1 MPI tasks x 1 OpenMP threads

MPI task timing breakdown:
Section |  min time  |  avg time  |  max time  |%varavg| %total
---------------------------------------------------------------
Pair    | 3361.5     | 3361.5     | 3361.5     |   0.0 | 87.03
Neigh   | 355.94     | 355.94     | 355.94     |   0.0 |  9.21
Comm    | 17.672     | 17.672     | 17.672     |   0.0 |  0.46
Output  | 0.001254   | 0.001254   | 0.001254   |   0.0 |  0.00
Modify  | 110.34     | 110.34     | 110.34     |   0.0 |  2.86
Other   |            | 17.16      |            |       |  0.44

Nlocal:          21952 ave       21952 max       21952 min
Histogram: 1 0 0 0 0 0 0 0 0 0
Nghost:          12202 ave       12202 max       12202 min
Histogram: 1 0 0 0 0 0 0 0 0 0
Neighs:         529933 ave      529933 max      529933 min
Histogram: 1 0 0 0 0 0 0 0 0 0

Total # of neighbors = 529933
Ave neighs/atom = 24.140534
Neighbor list builds = 19808
Dangerous builds = 0uunfix		1

#Equilibrio a nueva T
print	  	"Equilibration starts"
Equilibration starts
fix		2 all npt temp ${newtemp2} ${newtemp2} 0.1 iso 0.0 0.0 1.0
fix		2 all npt temp 1300 ${newtemp2} 0.1 iso 0.0 0.0 1.0
fix		2 all npt temp 1300 1300 0.1 iso 0.0 0.0 1.0
run 		${nequil}
run 		100000
Per MPI rank memory allocation (min/avg/max) = 12.51 | 12.51 | 12.51 Mbytes
   Step          Temp          PotEng    
   2200000   1300.0754     -81557.804    
   2210000   1292.411      -81576.345    
   2220000   1296.9186     -81551.211    
   2230000   1298.9335     -81564.564    
   2240000   1293.037      -81579.823    
   2250000   1306.2939     -81555.646    
   2260000   1308.7774     -81580.877    
   2270000   1303.4711     -81584.644    
   2280000   1302.9911     -81586.017    
   2290000   1299.629      -81575.31     
   2300000   1289.1816     -81608.41     
Loop time of 1923.63 on 1 procs for 100000 steps with 21952 atoms

Performance: 4.491 ns/day, 5.343 hours/ns, 51.985 timesteps/s, 1.141 Matom-step/s
92.6% CPU use with 1 MPI tasks x 1 OpenMP threads

MPI task timing breakdown:
Section |  min time  |  avg time  |  max time  |%varavg| %total
---------------------------------------------------------------
Pair    | 1672.1     | 1672.1     | 1672.1     |   0.0 | 86.92
Neigh   | 179.13     | 179.13     | 179.13     |   0.0 |  9.31
Comm    | 8.875      | 8.875      | 8.875      |   0.0 |  0.46
Output  | 0.00059    | 0.00059    | 0.00059    |   0.0 |  0.00
Modify  | 54.99      | 54.99      | 54.99      |   0.0 |  2.86
Other   |            | 8.579      |            |       |  0.45

Nlocal:          21952 ave       21952 max       21952 min
Histogram: 1 0 0 0 0 0 0 0 0 0
Nghost:          12147 ave       12147 max       12147 min
Histogram: 1 0 0 0 0 0 0 0 0 0
Neighs:         529663 ave      529663 max      529663 min
Histogram: 1 0 0 0 0 0 0 0 0 0

Total # of neighbors = 529663
Ave neighs/atom = 24.128234
Neighbor list builds = 10005
Dangerous builds = 0uunfix		2

#Se colecta estadistica
print	  	"Stats collecting starts"
Stats collecting starts
fix		3 all npt temp ${newtemp2} ${newtemp2} 0.1 iso 0.0 0.0 1.0
fix		3 all npt temp 1300 ${newtemp2} 0.1 iso 0.0 0.0 1.0
fix		3 all npt temp 1300 1300 0.1 iso 0.0 0.0 1.0
dump            3 all custom ${ndump} dump.${newtemp2} id type x y z c_peratom fx fy fz
dump            3 all custom 5000 dump.${newtemp2} id type x y z c_peratom fx fy fz
dump            3 all custom 5000 dump.1300 id type x y z c_peratom fx fy fz
dump_modify   	3 element Au

#neigh_modify    once yes
run		${nstat}
run		100000
Per MPI rank memory allocation (min/avg/max) = 16.77 | 16.77 | 16.77 Mbytes
   Step          Temp          PotEng    
   2300000   1289.1816     -81608.41     
   2310000   1296.0706     -81579.535    
   2320000   1304.4161     -81567.988    
   2330000   1301.2134     -81551.691    
   2340000   1297.9096     -81559.175    
   2350000   1310.16       -81559.161    
   2360000   1307.0361     -81579.944    
   2370000   1289.8976     -81612.774    
   2380000   1301.1166     -81624.704    
   2390000   1307.3693     -81595.694    
   2400000   1302.8883     -81561.901    
Loop time of 1925.56 on 1 procs for 100000 steps with 21952 atoms

Performance: 4.487 ns/day, 5.349 hours/ns, 51.933 timesteps/s, 1.140 Matom-step/s
92.6% CPU use with 1 MPI tasks x 1 OpenMP threads

MPI task timing breakdown:
Section |  min time  |  avg time  |  max time  |%varavg| %total
---------------------------------------------------------------
Pair    | 1672.7     | 1672.7     | 1672.7     |   0.0 | 86.87
Neigh   | 179.17     | 179.17     | 179.17     |   0.0 |  9.30
Comm    | 8.8751     | 8.8751     | 8.8751     |   0.0 |  0.46
Output  | 1.2649     | 1.2649     | 1.2649     |   0.0 |  0.07
Modify  | 54.99      | 54.99      | 54.99      |   0.0 |  2.86
Other   |            | 8.601      |            |       |  0.45

Nlocal:          21952 ave       21952 max       21952 min
Histogram: 1 0 0 0 0 0 0 0 0 0
Nghost:          12170 ave       12170 max       12170 min
Histogram: 1 0 0 0 0 0 0 0 0 0
Neighs:         530201 ave      530201 max      530201 min
Histogram: 1 0 0 0 0 0 0 0 0 0

Total # of neighbors = 530201
Ave neighs/atom = 24.152742
Neighbor list builds = 9997
Dangerous builds = 0uunfix		3
undump		3

#if "${newtemp2} > ${tempb}" then "jump SELF break2"
next b
jump SELF loop2
variable	b loop ${n2}
variable	b loop 2
variable	newtemp1 equal (v_b-1)*50+v_tempa
variable	newtemp2 equal v_newtemp1+50

#Rampa de T
print	  	"Temperature ramp starts"
Temperature ramp starts
fix             1 all npt temp ${newtemp1} ${newtemp2} 0.1 iso 0.0 0.0 1.0
fix             1 all npt temp 1300 ${newtemp2} 0.1 iso 0.0 0.0 1.0
fix             1 all npt temp 1300 1350 0.1 iso 0.0 0.0 1.0
run		${nramp}
run		200000
Per MPI rank memory allocation (min/avg/max) = 12.51 | 12.51 | 12.51 Mbytes
   Step          Temp          PotEng    
   2400000   1302.8883     -81561.901    
   2410000   1311.0455     -81542.78     
   2420000   1307.6319     -81555.088    
   2430000   1317.3011     -81563.172    
   2440000   1309.9438     -81553.874    
   2450000   1313.9637     -81540.606    
   2460000   1313.0942     -81526.559    
   2470000   1318.5365     -81506.565    
   2480000   1315.6369     -81518.366    
   2490000   1326.4656     -81486.354    
   2500000   1317.2591     -81465.493    
   2510000   1325.0169     -81510.36     
   2520000   1335.468      -81451.333    
   2530000   1327.3185     -81455.414    
   2540000   1333.914      -81463.79     
   2550000   1346.1114     -81443.152    
   2560000   1341.7703     -81420.022    
   2570000   1345.7762     -81406.162    
   2580000   1337.2879     -81370.139    
   2590000   1344.8112     -81412.585    
   2600000   1355.3254     -81382.781    
Loop time of 3858.59 on 1 procs for 200000 steps with 21952 atoms

Performance: 4.478 ns/day, 5.359 hours/ns, 51.832 timesteps/s, 1.138 Matom-step/s
92.6% CPU use with 1 MPI tasks x 1 OpenMP threads

MPI task timing breakdown:
Section |  min time  |  avg time  |  max time  |%varavg| %total
---------------------------------------------------------------
Pair    | 3351.6     | 3351.6     | 3351.6     |   0.0 | 86.86
Neigh   | 362.28     | 362.28     | 362.28     |   0.0 |  9.39
Comm    | 17.752     | 17.752     | 17.752     |   0.0 |  0.46
Output  | 0.001231   | 0.001231   | 0.001231   |   0.0 |  0.00
Modify  | 109.88     | 109.88     | 109.88     |   0.0 |  2.85
Other   |            | 17.13      |            |       |  0.44

Nlocal:          21952 ave       21952 max       21952 min
Histogram: 1 0 0 0 0 0 0 0 0 0
Nghost:          12193 ave       12193 max       12193 min
Histogram: 1 0 0 0 0 0 0 0 0 0
Neighs:         528778 ave      528778 max      528778 min
Histogram: 1 0 0 0 0 0 0 0 0 0

Total # of neighbors = 528778
Ave neighs/atom = 24.087919
Neighbor list builds = 20175
Dangerous builds = 0ununfix		1

#Equilibrio a nueva T
print	  	"Equilibration starts"
Equilibration starts
fix		2 all npt temp ${newtemp2} ${newtemp2} 0.1 iso 0.0 0.0 1.0
fix		2 all npt temp 1350 ${newtemp2} 0.1 iso 0.0 0.0 1.0
fix		2 all npt temp 1350 1350 0.1 iso 0.0 0.0 1.0
run 		${nequil}
run 		100000
Per MPI rank memory allocation (min/avg/max) = 12.51 | 12.51 | 12.51 Mbytes
   Step          Temp          PotEng    
   2600000   1355.3254     -81382.781    
   2610000   1366.4794     -81365.313    
   2620000   1334.5239     -81388.888    
   2630000   1356.3472     -81394.263    
   2640000   1346.6831     -81400.275    
   2650000   1341.2729     -81387.992    
   2660000   1356.2013     -81363.312    
   2670000   1347.4799     -81382.187    
   2680000   1340.3731     -81433.101    
   2690000   1338.9888     -81358.59     
   2700000   1353.2301     -81373.517    
Loop time of 1933.73 on 1 procs for 100000 steps with 21952 atoms

Performance: 4.468 ns/day, 5.371 hours/ns, 51.713 timesteps/s, 1.135 Matom-step/s
92.1% CPU use with 1 MPI tasks x 1 OpenMP threads

MPI task timing breakdown:
Section |  min time  |  avg time  |  max time  |%varavg| %total
---------------------------------------------------------------
Pair    | 1678.4     | 1678.4     | 1678.4     |   0.0 | 86.79
Neigh   | 182.86     | 182.86     | 182.86     |   0.0 |  9.46
Comm    | 8.8851     | 8.8851     | 8.8851     |   0.0 |  0.46
Output  | 0.000646   | 0.000646   | 0.000646   |   0.0 |  0.00
Modify  | 55.004     | 55.004     | 55.004     |   0.0 |  2.84
Other   |            | 8.621      |            |       |  0.45

Nlocal:          21952 ave       21952 max       21952 min
Histogram: 1 0 0 0 0 0 0 0 0 0
Nghost:          12164 ave       12164 max       12164 min
Histogram: 1 0 0 0 0 0 0 0 0 0
Neighs:         529390 ave      529390 max      529390 min
Histogram: 1 0 0 0 0 0 0 0 0 0

Total # of neighbors = 529390
Ave neighs/atom = 24.115798
Neighbor list builds = 10165
Dangerous builds = 0ununfix		2

#Se colecta estadistica
print	  	"Stats collecting starts"
Stats collecting starts
fix		3 all npt temp ${newtemp2} ${newtemp2} 0.1 iso 0.0 0.0 1.0
fix		3 all npt temp 1350 ${newtemp2} 0.1 iso 0.0 0.0 1.0
fix		3 all npt temp 1350 1350 0.1 iso 0.0 0.0 1.0
dump            3 all custom ${ndump} dump.${newtemp2} id type x y z c_peratom fx fy fz
dump            3 all custom 5000 dump.${newtemp2} id type x y z c_peratom fx fy fz
dump            3 all custom 5000 dump.1350 id type x y z c_peratom fx fy fz
dump_modify   	3 element Au

#neigh_modify    once yes
run		${nstat}
run		100000
Per MPI rank memory allocation (min/avg/max) = 16.77 | 16.77 | 16.77 Mbytes
   Step          Temp          PotEng    
   2700000   1353.2301     -81373.517    
   2710000   1342.4427     -81360.444    
   2720000   1339.361      -81356.972    
   2730000   1356.5127     -81396.731    
   2740000   1338.4566     -81410.816    
   2750000   1351.6632     -81382.075    
   2760000   1361.9978     -81423.031    
   2770000   1361.4003     -81376.478    
   2780000   1355.686      -81394.162    
   2790000   1351.1741     -81368.479    
   2800000   1347.3136     -81378.647    
Loop time of 1928.25 on 1 procs for 100000 steps with 21952 atoms

Performance: 4.481 ns/day, 5.356 hours/ns, 51.860 timesteps/s, 1.138 Matom-step/s
92.6% CPU use with 1 MPI tasks x 1 OpenMP threads

MPI task timing breakdown:
Section |  min time  |  avg time  |  max time  |%varavg| %total
---------------------------------------------------------------
Pair    | 1671.8     | 1671.8     | 1671.8     |   0.0 | 86.70
Neigh   | 182.76     | 182.76     | 182.76     |   0.0 |  9.48
Comm    | 8.8883     | 8.8883     | 8.8883     |   0.0 |  0.46
Output  | 1.2819     | 1.2819     | 1.2819     |   0.0 |  0.07
Modify  | 54.933     | 54.933     | 54.933     |   0.0 |  2.85
Other   |            | 8.617      |            |       |  0.45

Nlocal:          21952 ave       21952 max       21952 min
Histogram: 1 0 0 0 0 0 0 0 0 0
Nghost:          12091 ave       12091 max       12091 min
Histogram: 1 0 0 0 0 0 0 0 0 0
Neighs:         529003 ave      529003 max      529003 min
Histogram: 1 0 0 0 0 0 0 0 0 0

Total # of neighbors = 529003
Ave neighs/atom = 24.098169
Neighbor list builds = 10172
Dangerous builds = 0ununfix		3
undump		3

#if "${newtemp2} > ${tempb}" then "jump SELF break2"
next b
jump SELF loop2

#label break2
print	  	"Heating starts, high temperature"
Heating starts, high temperature
label		loop3
variable	c loop ${n3}
variable	c loop 7
variable	newtemp1 equal (v_c-1)*50+v_tempb
variable	newtemp2 equal v_newtemp1+50

#Rampa de T
print	  	"Temperature ramp starts"
Temperature ramp starts
fix             1 all npt temp ${newtemp1} ${newtemp2} 0.1 iso 0.0 0.0 1.0
fix             1 all npt temp 1350 ${newtemp2} 0.1 iso 0.0 0.0 1.0
fix             1 all npt temp 1350 1400 0.1 iso 0.0 0.0 1.0
run		${nramp}
run		200000
Per MPI rank memory allocation (min/avg/max) = 12.51 | 12.51 | 12.51 Mbytes
   Step          Temp          PotEng    
   2800000   1347.3136     -81378.647    
   2810000   1345.0543     -81398.352    
   2820000   1357.5373     -81388.811    
   2830000   1367.1027     -81317.428    
   2840000   1354.4618     -81376.915    
   2850000   1361.0994     -81359.595    
   2860000   1362.4636     -81298.317    
   2870000   1371.2352     -81327.78     
   2880000   1363.1053     -81290.724    
   2890000   1372.1027     -81256.499    
   2900000   1376.452      -81253.996    
   2910000   1374.6727     -81261.837    
   2920000   1372.8498     -81273.718    
   2930000   1380.4995     -81242.059    
   2940000   1390.4131     -81218.148    
   2950000   1393.0702     -81243.106    
   2960000   1388.0377     -81222.329    
   2970000   1386.1726     -81174.71     
   2980000   1386.6991     -81213.321    
   2990000   1401.2095     -81132.436    
   3000000   1406.0237     -81194.816    
Loop time of 3863.37 on 1 procs for 200000 steps with 21952 atoms

Performance: 4.473 ns/day, 5.366 hours/ns, 51.768 timesteps/s, 1.136 Matom-step/s
92.6% CPU use with 1 MPI tasks x 1 OpenMP threads

MPI task timing breakdown:
Section |  min time  |  avg time  |  max time  |%varavg| %total
---------------------------------------------------------------
Pair    | 3349.7     | 3349.7     | 3349.7     |   0.0 | 86.70
Neigh   | 368.7      | 368.7      | 368.7      |   0.0 |  9.54
Comm    | 17.862     | 17.862     | 17.862     |   0.0 |  0.46
Output  | 0.001188   | 0.001188   | 0.001188   |   0.0 |  0.00
Modify  | 109.89     | 109.89     | 109.89     |   0.0 |  2.84
Other   |            | 17.21      |            |       |  0.45

Nlocal:          21952 ave       21952 max       21952 min
Histogram: 1 0 0 0 0 0 0 0 0 0
Nghost:          12176 ave       12176 max       12176 min
Histogram: 1 0 0 0 0 0 0 0 0 0
Neighs:         528811 ave      528811 max      528811 min
Histogram: 1 0 0 0 0 0 0 0 0 0

Total # of neighbors = 528811
Ave neighs/atom = 24.089422
Neighbor list builds = 20513
Dangerous builds = 0ununfix		1

#Equilibrio a nueva T
print	  	"Equilibration starts"
Equilibration starts
fix		2 all npt temp ${newtemp2} ${newtemp2} 0.1 iso 0.0 0.0 1.0
fix		2 all npt temp 1400 ${newtemp2} 0.1 iso 0.0 0.0 1.0
fix		2 all npt temp 1400 1400 0.1 iso 0.0 0.0 1.0
run 		${nequil}
run 		100000
Per MPI rank memory allocation (min/avg/max) = 12.51 | 12.51 | 12.51 Mbytes
   Step          Temp          PotEng    
   3000000   1406.0237     -81194.816    
   3010000   1404.4648     -81137.872    
   3020000   1411.1746     -81235.165    
   3030000   1406.0873     -81151.278    
   3040000   1395.5009     -81168.936    
   3050000   1399.3303     -81183.573    
   3060000   1411.5067     -81211.34     
   3070000   1400.0145     -81190        
   3080000   1410.1488     -81165.299    
   3090000   1411.8891     -81180.155    
   3100000   1396.638      -81191.525    
Loop time of 1932.46 on 1 procs for 100000 steps with 21952 atoms

Performance: 4.471 ns/day, 5.368 hours/ns, 51.748 timesteps/s, 1.136 Matom-step/s
92.4% CPU use with 1 MPI tasks x 1 OpenMP threads

MPI task timing breakdown:
Section |  min time  |  avg time  |  max time  |%varavg| %total
---------------------------------------------------------------
Pair    | 1673.8     | 1673.8     | 1673.8     |   0.0 | 86.61
Neigh   | 186.12     | 186.12     | 186.12     |   0.0 |  9.63
Comm    | 8.944      | 8.944      | 8.944      |   0.0 |  0.46
Output  | 0.000632   | 0.000632   | 0.000632   |   0.0 |  0.00
Modify  | 54.99      | 54.99      | 54.99      |   0.0 |  2.85
Other   |            | 8.608      |            |       |  0.45

Nlocal:          21952 ave       21952 max       21952 min
Histogram: 1 0 0 0 0 0 0 0 0 0
Nghost:          12129 ave       12129 max       12129 min
Histogram: 1 0 0 0 0 0 0 0 0 0
Neighs:         527679 ave      527679 max      527679 min
Histogram: 1 0 0 0 0 0 0 0 0 0

Total # of neighbors = 527679
Ave neighs/atom = 24.037855
Neighbor list builds = 10326
Dangerous builds = 0ununfix		2

#Se colecta estadistica
print	  	"Stats collecting starts"
Stats collecting starts
fix		3 all npt temp ${newtemp2} ${newtemp2} 0.1 iso 0.0 0.0 1.0
fix		3 all npt temp 1400 ${newtemp2} 0.1 iso 0.0 0.0 1.0
fix		3 all npt temp 1400 1400 0.1 iso 0.0 0.0 1.0
dump            3 all custom ${ndump} dump.${newtemp2} id type x y z c_peratom fx fy fz
dump            3 all custom 5000 dump.${newtemp2} id type x y z c_peratom fx fy fz
dump            3 all custom 5000 dump.1400 id type x y z c_peratom fx fy fz
dump_modify   	3 element Au

#neigh_modify    once yes
run		${nstat}
run		100000
Per MPI rank memory allocation (min/avg/max) = 16.77 | 16.77 | 16.77 Mbytes
   Step          Temp          PotEng    
   3100000   1396.638      -81191.525    
   3110000   1399.216      -81230.003    
   3120000   1383.9124     -81168.965    
   3130000   1399.5126     -81177.047    
   3140000   1391.2088     -81191.553    
   3150000   1404.3765     -81197.038    
   3160000   1389.4915     -81161.495    
   3170000   1405.2553     -81223.631    
   3180000   1405.5325     -81124.852    
   3190000   1385.2714     -81155.94     
   3200000   1396.842      -81173.385    
Loop time of 1928.13 on 1 procs for 100000 steps with 21952 atoms

Performance: 4.481 ns/day, 5.356 hours/ns, 51.864 timesteps/s, 1.139 Matom-step/s
92.5% CPU use with 1 MPI tasks x 1 OpenMP threads

MPI task timing breakdown:
Section |  min time  |  avg time  |  max time  |%varavg| %total
---------------------------------------------------------------
Pair    | 1668.8     | 1668.8     | 1668.8     |   0.0 | 86.55
Neigh   | 185.75     | 185.75     | 185.75     |   0.0 |  9.63
Comm    | 8.8928     | 8.8928     | 8.8928     |   0.0 |  0.46
Output  | 1.2603     | 1.2603     | 1.2603     |   0.0 |  0.07
Modify  | 54.821     | 54.821     | 54.821     |   0.0 |  2.84
Other   |            | 8.611      |            |       |  0.45

Nlocal:          21952 ave       21952 max       21952 min
Histogram: 1 0 0 0 0 0 0 0 0 0
Nghost:          12183 ave       12183 max       12183 min
Histogram: 1 0 0 0 0 0 0 0 0 0
Neighs:         528407 ave      528407 max      528407 min
Histogram: 1 0 0 0 0 0 0 0 0 0

Total # of neighbors = 528407
Ave neighs/atom = 24.071019
Neighbor list builds = 10314
Dangerous builds = 0ununfix		3
undump		3

#if "${newtemp2} > ${temp2}" then "jump SELF break3"
next c
jump SELF loop3
variable	c loop ${n3}
variable	c loop 7
variable	newtemp1 equal (v_c-1)*50+v_tempb
variable	newtemp2 equal v_newtemp1+50

#Rampa de T
print	  	"Temperature ramp starts"
Temperature ramp starts
fix             1 all npt temp ${newtemp1} ${newtemp2} 0.1 iso 0.0 0.0 1.0
fix             1 all npt temp 1400 ${newtemp2} 0.1 iso 0.0 0.0 1.0
fix             1 all npt temp 1400 1450 0.1 iso 0.0 0.0 1.0
run		${nramp}
run		200000
Per MPI rank memory allocation (min/avg/max) = 12.51 | 12.51 | 12.51 Mbytes
   Step          Temp          PotEng    
   3200000   1396.842      -81173.385    
   3210000   1410.3908     -81125.812    
   3220000   1399.7041     -81145.132    
   3230000   1408.0393     -81193.878    
   3240000   1412.0011     -81160.31     
   3250000   1425.145      -81125.541    
   3260000   1426.8598     -81122.286    
   3270000   1409.6718     -81123.01     
   3280000   1419.674      -81079.418    
   3290000   1420.0315     -81112.713    
   3300000   1419.1028     -81086.472    
   3310000   1427.0084     -81066.421    
   3320000   1434.2412     -81028.787    
   3330000   1434.5005     -81067.115    
   3340000   1431.8469     -81025.318    
   3350000   1433.3265     -81036.55     
   3360000   1429.0141     -80989.261    
   3370000   1443.4019     -80957.588    
   3380000   1439.061      -80995.788    
   3390000   1455.604      -80989.396    
   3400000   1426.5739     -80934.509    
Loop time of 4033.03 on 1 procs for 200000 steps with 21952 atoms

Performance: 4.285 ns/day, 5.601 hours/ns, 49.590 timesteps/s, 1.089 Matom-step/s
85.4% CPU use with 1 MPI tasks x 1 OpenMP threads

MPI task timing breakdown:
Section |  min time  |  avg time  |  max time  |%varavg| %total
---------------------------------------------------------------
Pair    | 3490.2     | 3490.2     | 3490.2     |   0.0 | 86.54
Neigh   | 383.1      | 383.1      | 383.1      |   0.0 |  9.50
Comm    | 20.185     | 20.185     | 20.185     |   0.0 |  0.50
Output  | 0.001691   | 0.001691   | 0.001691   |   0.0 |  0.00
Modify  | 120.46     | 120.46     | 120.46     |   0.0 |  2.99
Other   |            | 19.1       |            |       |  0.47

Nlocal:          21952 ave       21952 max       21952 min
Histogram: 1 0 0 0 0 0 0 0 0 0
Nghost:          12081 ave       12081 max       12081 min
Histogram: 1 0 0 0 0 0 0 0 0 0
Neighs:         527146 ave      527146 max      527146 min
Histogram: 1 0 0 0 0 0 0 0 0 0

Total # of neighbors = 527146
Ave neighs/atom = 24.013575
Neighbor list builds = 20802
Dangerous builds = unfunfix		1

#Equilibrio a nueva T
print	  	"Equilibration starts"
Equilibration starts
fix		2 all npt temp ${newtemp2} ${newtemp2} 0.1 iso 0.0 0.0 1.0
fix		2 all npt temp 1450 ${newtemp2} 0.1 iso 0.0 0.0 1.0
fix		2 all npt temp 1450 1450 0.1 iso 0.0 0.0 1.0
run 		${nequil}
run 		100000
Per MPI rank memory allocation (min/avg/max) = 12.51 | 12.51 | 12.51 Mbytes
   Step          Temp          PotEng    
   3400000   1426.5739     -80934.509    
   3410000   1446.4528     -80971.225    
   3420000   1438.6072     -81011.84     
   3430000   1468.6522     -80954.283    
   3440000   1454.3917     -80915.91     
   3450000   1446.1664     -80937.983    
   3460000   1458.6088     -80993.15     
   3470000   1441.3816     -80967.892    
   3480000   1449.3658     -81001.71     
   3490000   1458.557      -80983.863    
   3500000   1456.1427     -80937.949    
Loop time of 2374.65 on 1 procs for 100000 steps with 21952 atoms

Performance: 3.638 ns/day, 6.596 hours/ns, 42.111 timesteps/s, 924.431 katom-step/s
59.4% CPU use with 1 MPI tasks x 1 OpenMP threads

MPI task timing breakdown:
Section |  min time  |  avg time  |  max time  |%varavg| %total
---------------------------------------------------------------
Pair    | 2045       | 2045       | 2045       |   0.0 | 86.12
Neigh   | 212.93     | 212.93     | 212.93     |   0.0 |  8.97
Comm    | 15.87      | 15.87      | 15.87      |   0.0 |  0.67
Output  | 0.000727   | 0.000727   | 0.000727   |   0.0 |  0.00
Modify  | 86.512     | 86.512     | 86.512     |   0.0 |  3.64
Other   |            | 14.39      |            |       |  0.61

Nlocal:          21952 ave       21952 max       21952 min
Histogram: 1 0 0 0 0 0 0 0 0 0
Nghost:          12161 ave       12161 max       12161 min
Histogram: 1 0 0 0 0 0 0 0 0 0
Neighs:         527600 ave      527600 max      527600 min
Histogram: 1 0 0 0 0 0 0 0 0 0

Total # of neighbors = 527600
Ave neighs/atom = 24.034257
Neighbor list builds = 10517
Dangerous builds = unfunfix		2

#Se colecta estadistica
print	  	"Stats collecting starts"
Stats collecting starts
fix		3 all npt temp ${newtemp2} ${newtemp2} 0.1 iso 0.0 0.0 1.0
fix		3 all npt temp 1450 ${newtemp2} 0.1 iso 0.0 0.0 1.0
fix		3 all npt temp 1450 1450 0.1 iso 0.0 0.0 1.0
dump            3 all custom ${ndump} dump.${newtemp2} id type x y z c_peratom fx fy fz
dump            3 all custom 5000 dump.${newtemp2} id type x y z c_peratom fx fy fz
dump            3 all custom 5000 dump.1450 id type x y z c_peratom fx fy fz
dump_modify   	3 element Au

#neigh_modify    once yes
run		${nstat}
run		100000
Per MPI rank memory allocation (min/avg/max) = 16.77 | 16.77 | 16.77 Mbytes
   Step          Temp          PotEng    
   3500000   1456.1427     -80937.949    
   3510000   1441.2992     -80955.102    
   3520000   1452.4852     -80976.555    
   3530000   1471.4591     -80951.08     
   3540000   1435.496      -80898.914    
   3550000   1440.3269     -80989.549    
   3560000   1446.5789     -80980.286    
   3570000   1450.7434     -81006.152    
   3580000   1441.4698     -80974.083    
   3590000   1446.7607     -81005.536    
   3600000   1443.0561     -80995.337    
Loop time of 1987.11 on 1 procs for 100000 steps with 21952 atoms

Performance: 4.348 ns/day, 5.520 hours/ns, 50.324 timesteps/s, 1.105 Matom-step/s
87.3% CPU use with 1 MPI tasks x 1 OpenMP threads

MPI task timing breakdown:
Section |  min time  |  avg time  |  max time  |%varavg| %total
---------------------------------------------------------------
Pair    | 1715.6     | 1715.6     | 1715.6     |   0.0 | 86.34
Neigh   | 193.13     | 193.13     | 193.13     |   0.0 |  9.72
Comm    | 9.7265     | 9.7265     | 9.7265     |   0.0 |  0.49
Output  | 1.314      | 1.314      | 1.314      |   0.0 |  0.07
Modify  | 58.208     | 58.208     | 58.208     |   0.0 |  2.93
Other   |            | 9.152      |            |       |  0.46

Nlocal:          21952 ave       21952 max       21952 min
Histogram: 1 0 0 0 0 0 0 0 0 0
Nghost:          12173 ave       12173 max       12173 min
Histogram: 1 0 0 0 0 0 0 0 0 0
Neighs:         527851 ave      527851 max      527851 min
Histogram: 1 0 0 0 0 0 0 0 0 0

Total # of neighbors = 527851
Ave neighs/atom = 24.045691
Neighbor list builds = 10502
Dangerous builds = unfunfix		3
undump		3

#if "${newtemp2} > ${temp2}" then "jump SELF break3"
next c
jump SELF loop3
variable	c loop ${n3}
variable	c loop 7
variable	newtemp1 equal (v_c-1)*50+v_tempb
variable	newtemp2 equal v_newtemp1+50

#Rampa de T
print	  	"Temperature ramp starts"
Temperature ramp starts
fix             1 all npt temp ${newtemp1} ${newtemp2} 0.1 iso 0.0 0.0 1.0
fix             1 all npt temp 1450 ${newtemp2} 0.1 iso 0.0 0.0 1.0
fix             1 all npt temp 1450 1500 0.1 iso 0.0 0.0 1.0
run		${nramp}
run		200000
Per MPI rank memory allocation (min/avg/max) = 12.51 | 12.51 | 12.51 Mbytes
   Step          Temp          PotEng    
   3600000   1443.0561     -80995.337    
   3610000   1445.366      -80983.48     
   3620000   1451.9287     -80939.108    
   3630000   1457.2775     -80957.105    
   3640000   1447.4178     -80890.296    
   3650000   1465.9113     -80903.56     
   3660000   1457.8952     -80871.121    
   3670000   1473.2604     -80905.865    
   3680000   1460.7509     -80874.868    
   3690000   1482.5275     -80845.806    
   3700000   1452.4503     -80865.63     
   3710000   1476.1617     -80825.151    
   3720000   1479.6749     -80858.235    
   3730000   1483.2022     -80779.083    
   3740000   1485.034      -80814.82     
   3750000   1471.6353     -80776.515    
   3760000   1473.7986     -80832.38     
   3770000   1484.2514     -80846.416    
   3780000   1496.1023     -80787.746    
   3790000   1502.5647     -80739.188    
   3800000   1503.2304     -80760.81     
Loop time of 5625.56 on 1 procs for 200000 steps with 21952 atoms

Performance: 3.072 ns/day, 7.813 hours/ns, 35.552 timesteps/s, 780.437 katom-step/s
37.8% CPU use with 1 MPI tasks x 1 OpenMP threads

MPI task timing breakdown:
Section |  min time  |  avg time  |  max time  |%varavg| %total
---------------------------------------------------------------
Pair    | 4835       | 4835       | 4835       |   0.0 | 85.95
Neigh   | 488.45     | 488.45     | 488.45     |   0.0 |  8.68
Comm    | 41.341     | 41.341     | 41.341     |   0.0 |  0.73
Output  | 0.002128   | 0.002128   | 0.002128   |   0.0 |  0.00
Modify  | 225.45     | 225.45     | 225.45     |   0.0 |  4.01
Other   |            | 35.34      |            |       |  0.63

Nlocal:          21952 ave       21952 max       21952 min
Histogram: 1 0 0 0 0 0 0 0 0 0
Nghost:          12228 ave       12228 max       12228 min
Histogram: 1 0 0 0 0 0 0 0 0 0
Neighs:         526576 ave      526576 max      526576 min
Histogram: 1 0 0 0 0 0 0 0 0 0

Total # of neighbors = 526576
Ave neighs/atom = 23.987609
Neighbor list builds = 21185
Dangerous builds = unfunfix		1

#Equilibrio a nueva T
print	  	"Equilibration starts"
Equilibration starts
fix		2 all npt temp ${newtemp2} ${newtemp2} 0.1 iso 0.0 0.0 1.0
fix		2 all npt temp 1500 ${newtemp2} 0.1 iso 0.0 0.0 1.0
fix		2 all npt temp 1500 1500 0.1 iso 0.0 0.0 1.0
run 		${nequil}
run 		100000
Per MPI rank memory allocation (min/avg/max) = 12.51 | 12.51 | 12.51 Mbytes
   Step          Temp          PotEng    
   3800000   1503.2304     -80760.81     
   3810000   1498.4158     -80826.059    
   3820000   1500.4746     -80760.797    
   3830000   1509.8449     -80739.677    
   3840000   1519.742      -80763.135    
   3850000   1490.7966     -80719.392    
   3860000   1503.7236     -80769.493    
   3870000   1498.6012     -80744.077    
   3880000   1505.6746     -80743.828    
   3890000   1494.8095     -80760.498    
   3900000   1492.3658     -80780.32     
Loop time of 2696.21 on 1 procs for 100000 steps with 21952 atoms

Performance: 3.205 ns/day, 7.489 hours/ns, 37.089 timesteps/s, 814.181 katom-step/s
29.5% CPU use with 1 MPI tasks x 1 OpenMP threads

MPI task timing breakdown:
Section |  min time  |  avg time  |  max time  |%varavg| %total
---------------------------------------------------------------
Pair    | 2322.9     | 2322.9     | 2322.9     |   0.0 | 86.15
Neigh   | 239.21     | 239.21     | 239.21     |   0.0 |  8.87
Comm    | 18.812     | 18.812     | 18.812     |   0.0 |  0.70
Output  | 0.000822   | 0.000822   | 0.000822   |   0.0 |  0.00
Modify  | 99.646     | 99.646     | 99.646     |   0.0 |  3.70
Other   |            | 15.64      |            |       |  0.58

Nlocal:          21952 ave       21952 max       21952 min
Histogram: 1 0 0 0 0 0 0 0 0 0
Nghost:          12240 ave       12240 max       12240 min
Histogram: 1 0 0 0 0 0 0 0 0 0
Neighs:         526550 ave      526550 max      526550 min
Histogram: 1 0 0 0 0 0 0 0 0 0

Total # of neighbors = 526550
Ave neighs/atom = 23.986425
Neighbor list builds = 10676
Dangerous builds = unfunfix		2

#Se colecta estadistica
print	  	"Stats collecting starts"
Stats collecting starts
fix		3 all npt temp ${newtemp2} ${newtemp2} 0.1 iso 0.0 0.0 1.0
fix		3 all npt temp 1500 ${newtemp2} 0.1 iso 0.0 0.0 1.0
fix		3 all npt temp 1500 1500 0.1 iso 0.0 0.0 1.0
dump            3 all custom ${ndump} dump.${newtemp2} id type x y z c_peratom fx fy fz
dump            3 all custom 5000 dump.${newtemp2} id type x y z c_peratom fx fy fz
dump            3 all custom 5000 dump.1500 id type x y z c_peratom fx fy fz
dump_modify   	3 element Au

#neigh_modify    once yes
run		${nstat}
run		100000
Per MPI rank memory allocation (min/avg/max) = 16.77 | 16.77 | 16.77 Mbytes
   Step          Temp          PotEng    
   3900000   1492.3658     -80780.32     
   3910000   1498.2134     -80793.184    
   3920000   1496.6592     -80744.352    
   3930000   1500.7368     -80760.277    
   3940000   1515.4576     -80775.99     
   3950000   1509.4213     -80723.203    
   3960000   1493.8523     -80770.209    
   3970000   1493.5497     -80768.392    
   3980000   1502.7196     -80770.313    
   3990000   1487.8933     -80700.477    
   4000000   1508.5291     -80742.47     
Loop time of 2370.31 on 1 procs for 100000 steps with 21952 atoms

Performance: 3.645 ns/day, 6.584 hours/ns, 42.189 timesteps/s, 926.124 katom-step/s
39.7% CPU use with 1 MPI tasks x 1 OpenMP threads

MPI task timing breakdown:
Section |  min time  |  avg time  |  max time  |%varavg| %total
---------------------------------------------------------------
Pair    | 2044.1     | 2044.1     | 2044.1     |   0.0 | 86.24
Neigh   | 216.56     | 216.56     | 216.56     |   0.0 |  9.14
Comm    | 14.912     | 14.912     | 14.912     |   0.0 |  0.63
Output  | 1.4606     | 1.4606     | 1.4606     |   0.0 |  0.06
Modify  | 80.525     | 80.525     | 80.525     |   0.0 |  3.40
Other   |            | 12.77      |            |       |  0.54

Nlocal:          21952 ave       21952 max       21952 min
Histogram: 1 0 0 0 0 0 0 0 0 0
Nghost:          12174 ave       12174 max       12174 min
Histogram: 1 0 0 0 0 0 0 0 0 0
Neighs:         526615 ave      526615 max      526615 min
Histogram: 1 0 0 0 0 0 0 0 0 0

Total # of neighbors = 526615
Ave neighs/atom = 23.989386
Neighbor list builds = 10666
Dangerous builds = unfunfix		3
undump		3

#if "${newtemp2} > ${temp2}" then "jump SELF break3"
next c
jump SELF loop3
variable	c loop ${n3}
variable	c loop 7
variable	newtemp1 equal (v_c-1)*50+v_tempb
variable	newtemp2 equal v_newtemp1+50

#Rampa de T
print	  	"Temperature ramp starts"
Temperature ramp starts
fix             1 all npt temp ${newtemp1} ${newtemp2} 0.1 iso 0.0 0.0 1.0
fix             1 all npt temp 1500 ${newtemp2} 0.1 iso 0.0 0.0 1.0
fix             1 all npt temp 1500 1550 0.1 iso 0.0 0.0 1.0
run		${nramp}
run		200000
Per MPI rank memory allocation (min/avg/max) = 12.51 | 12.51 | 12.51 Mbytes
   Step          Temp          PotEng    
   4000000   1508.5291     -80742.47     
   4010000   1490.1444     -80769.587    
   4020000   1497.6413     -80727.455    
   4030000   1507.6108     -80703.116    
   4040000   1513.8055     -80754.375    
   4050000   1501.9686     -80688.308    
   4060000   1503.0555     -80726.719    
   4070000   1519.391      -80644.243    
   4080000   1514.7777     -80722.113    
   4090000   1517.2455     -80624.443    
   4100000   1524.4017     -80647.123    
   4110000   1525.9384     -80589.612    
   4120000   1525.3809     -80688.817    
   4130000   1529.986      -80569.902    
   4140000   1533.1491     -80596.783    
   4150000   1549.951      -80560.049    
   4160000   1549.9547     -80604.067    
   4170000   1546.3792     -80525.086    
   4180000   1562.4623     -80613.197    
   4190000   1548.4102     -80521.205    
   4200000   1545.0674     -80482.025    
Loop time of 4739.29 on 1 procs for 200000 steps with 21952 atoms

Performance: 3.646 ns/day, 6.582 hours/ns, 42.200 timesteps/s, 926.383 katom-step/s
42.1% CPU use with 1 MPI tasks x 1 OpenMP threads

MPI task timing breakdown:
Section |  min time  |  avg time  |  max time  |%varavg| %total
---------------------------------------------------------------
Pair    | 4084       | 4084       | 4084       |   0.0 | 86.17
Neigh   | 437.88     | 437.88     | 437.88     |   0.0 |  9.24
Comm    | 29.934     | 29.934     | 29.934     |   0.0 |  0.63
Output  | 0.00162    | 0.00162    | 0.00162    |   0.0 |  0.00
Modify  | 161.69     | 161.69     | 161.69     |   0.0 |  3.41
Other   |            | 25.78      |            |       |  0.54

Nlocal:          21952 ave       21952 max       21952 min
Histogram: 1 0 0 0 0 0 0 0 0 0
Nghost:          12142 ave       12142 max       12142 min
Histogram: 1 0 0 0 0 0 0 0 0 0
Neighs:         525373 ave      525373 max      525373 min
Histogram: 1 0 0 0 0 0 0 0 0 0

Total # of neighbors = 525373
Ave neighs/atom = 23.932808
Neighbor list builds = 21541
Dangerous builds = unfunfix		1

#Equilibrio a nueva T
print	  	"Equilibration starts"
Equilibration starts
fix		2 all npt temp ${newtemp2} ${newtemp2} 0.1 iso 0.0 0.0 1.0
fix		2 all npt temp 1550 ${newtemp2} 0.1 iso 0.0 0.0 1.0
fix		2 all npt temp 1550 1550 0.1 iso 0.0 0.0 1.0
run 		${nequil}
run 		100000
Per MPI rank memory allocation (min/avg/max) = 12.51 | 12.51 | 12.51 Mbytes
   Step          Temp          PotEng    
   4200000   1545.0674     -80482.025    
   4210000   1548.6927     -80523.379    
   4220000   1535.2791     -80549.221    
   4230000   1552.0596     -80519.004    
   4240000   1545.1612     -80508.816    
   4250000   1551.5364     -80487.687    
   4260000   1558.2548     -80571.626    
   4270000   1543.2627     -80514.247    
   4280000   1566.2067     -80538.529    
   4290000   1560.0662     -80561.201    
   4300000   1556.435      -80553.81     
Loop time of 2805.78 on 1 procs for 100000 steps with 21952 atoms

Performance: 3.079 ns/day, 7.794 hours/ns, 35.641 timesteps/s, 782.386 katom-step/s
38.5% CPU use with 1 MPI tasks x 1 OpenMP threads

MPI task timing breakdown:
Section |  min time  |  avg time  |  max time  |%varavg| %total
---------------------------------------------------------------
Pair    | 2400.5     | 2400.5     | 2400.5     |   0.0 | 85.56
Neigh   | 240.3      | 240.3      | 240.3      |   0.0 |  8.56
Comm    | 24.236     | 24.236     | 24.236     |   0.0 |  0.86
Output  | 0.000685   | 0.000685   | 0.000685   |   0.0 |  0.00
Modify  | 120.85     | 120.85     | 120.85     |   0.0 |  4.31
Other   |            | 19.87      |            |       |  0.71

Nlocal:          21952 ave       21952 max       21952 min
[...]
   4580000   1599.1418     -80317.186    
   4590000   1598.1415     -80290.778    
   4600000   1606.2015     -80305.138    
Loop time of 4001.15 on 1 procs for 200000 steps with 21952 atoms

Performance: 4.319 ns/day, 5.557 hours/ns, 49.986 timesteps/s, 1.097 Matom-step/s
82.0% CPU use with 1 MPI tasks x 1 OpenMP threads

MPI task timing breakdown:
Section |  min time  |  avg time  |  max time  |%varavg| %total
---------------------------------------------------------------
Pair    | 3441.3     | 3441.3     | 3441.3     |   0.0 | 86.01
Neigh   | 406.93     | 406.93     | 406.93     |   0.0 | 10.17
Comm    | 19.53      | 19.53      | 19.53      |   0.0 |  0.49
Output  | 0.001211   | 0.001211   | 0.001211   |   0.0 |  0.00
Modify  | 115.26     | 115.26     | 115.26     |   0.0 |  2.88
Other   |            | 18.12      |            |       |  0.45

Nlocal:          21952 ave       21952 max       21952 min
Histogram: 1 0 0 0 0 0 0 0 0 0
Nghost:          12128 ave       12128 max       12128 min
Histogram: 1 0 0 0 0 0 0 0 0 0
Neighs:         524229 ave      524229 max      524229 min
Histogram: 1 0 0 0 0 0 0 0 0 0

Total # of neighbors = 524229
Ave neighs/atom = 23.880694
Neighbor list builds = 21887
Dangerous builds unfixunfix		1

#Equilibrio a nueva T
print	  	"Equilibration starts"
Equilibration starts
fix		2 all npt temp ${newtemp2} ${newtemp2} 0.1 iso 0.0 0.0 1.0
fix		2 all npt temp 1600 ${newtemp2} 0.1 iso 0.0 0.0 1.0
fix		2 all npt temp 1600 1600 0.1 iso 0.0 0.0 1.0
run 		${nequil}
run 		100000
Per MPI rank memory allocation (min/avg/max) = 12.51 | 12.51 | 12.51 Mbytes
   Step          Temp          PotEng    
   4600000   1606.2015     -80305.138    
   4610000   1590.4288     -80226.283    
   4620000   1601.8702     -80259.414    
   4630000   1591.3813     -80341.745    
   4640000   1606.5881     -80274.098    
   4650000   1575.612      -80275.703    
   4660000   1576.6623     -80290.449    
   4670000   1594.9824     -80289.975    
   4680000   1611.6181     -80274.674    
   4690000   1621.2376     -80252.025    
   4700000   1593.9196     -80285.981    
Loop time of 2010.38 on 1 procs for 100000 steps with 21952 atoms

Performance: 4.298 ns/day, 5.584 hours/ns, 49.742 timesteps/s, 1.092 Matom-step/s
81.3% CPU use with 1 MPI tasks x 1 OpenMP threads

MPI task timing breakdown:
Section |  min time  |  avg time  |  max time  |%varavg| %total
---------------------------------------------------------------
Pair    | 1728.1     | 1728.1     | 1728.1     |   0.0 | 85.96
Neigh   | 205.22     | 205.22     | 205.22     |   0.0 | 10.21
Comm    | 9.8198     | 9.8198     | 9.8198     |   0.0 |  0.49
Output  | 0.000711   | 0.000711   | 0.000711   |   0.0 |  0.00
Modify  | 58.081     | 58.081     | 58.081     |   0.0 |  2.89
Other   |            | 9.132      |            |       |  0.45

Nlocal:          21952 ave       21952 max       21952 min
Histogram: 1 0 0 0 0 0 0 0 0 0
Nghost:          12125 ave       12125 max       12125 min
Histogram: 1 0 0 0 0 0 0 0 0 0
Neighs:         524536 ave      524536 max      524536 min
Histogram: 1 0 0 0 0 0 0 0 0 0

Total # of neighbors = 524536
Ave neighs/atom = 23.894679
Neighbor list builds = 11005
Dangerous builds unfixunfix		2

#Se colecta estadistica
print	  	"Stats collecting starts"
Stats collecting starts
fix		3 all npt temp ${newtemp2} ${newtemp2} 0.1 iso 0.0 0.0 1.0
fix		3 all npt temp 1600 ${newtemp2} 0.1 iso 0.0 0.0 1.0
fix		3 all npt temp 1600 1600 0.1 iso 0.0 0.0 1.0
dump            3 all custom ${ndump} dump.${newtemp2} id type x y z c_peratom fx fy fz
dump            3 all custom 5000 dump.${newtemp2} id type x y z c_peratom fx fy fz
dump            3 all custom 5000 dump.1600 id type x y z c_peratom fx fy fz
dump_modify   	3 element Au

#neigh_modify    once yes
run		${nstat}
run		100000
Per MPI rank memory allocation (min/avg/max) = 16.77 | 16.77 | 16.77 Mbytes
   Step          Temp          PotEng    
   4700000   1593.9196     -80285.981    
   4710000   1608.6019     -80288.58     
   4720000   1598.4158     -80315.439    
   4730000   1592.2933     -80322.267    
   4740000   1605.6783     -80272.436    
   4750000   1606.966      -80315.906    
   4760000   1596.5256     -80244.064    
   4770000   1606.7952     -80255.898    
   4780000   1600.1424     -80224.603    
   4790000   1622.0157     -80285.323    
   4800000   1613.2566     -80300.931    
Loop time of 1994.67 on 1 procs for 100000 steps with 21952 atoms

Performance: 4.332 ns/day, 5.541 hours/ns, 50.134 timesteps/s, 1.101 Matom-step/s
82.6% CPU use with 1 MPI tasks x 1 OpenMP threads

MPI task timing breakdown:
Section |  min time  |  avg time  |  max time  |%varavg| %total
---------------------------------------------------------------
Pair    | 1712.1     | 1712.1     | 1712.1     |   0.0 | 85.84
Neigh   | 205.04     | 205.04     | 205.04     |   0.0 | 10.28
Comm    | 9.6892     | 9.6892     | 9.6892     |   0.0 |  0.49
Output  | 1.3127     | 1.3127     | 1.3127     |   0.0 |  0.07
Modify  | 57.455     | 57.455     | 57.455     |   0.0 |  2.88
Other   |            | 9.03       |            |       |  0.45

Nlocal:          21952 ave       21952 max       21952 min
Histogram: 1 0 0 0 0 0 0 0 0 0
Nghost:          12246 ave       12246 max       12246 min
Histogram: 1 0 0 0 0 0 0 0 0 0
Neighs:         524771 ave      524771 max      524771 min
Histogram: 1 0 0 0 0 0 0 0 0 0

Total # of neighbors = 524771
Ave neighs/atom = 23.905384
Neighbor list builds = 11030
Dangerous builds unfixunfix		3
undump		3

#if "${newtemp2} > ${temp2}" then "jump SELF break3"
next c
jump SELF loop3
variable	c loop ${n3}
variable	c loop 7
variable	newtemp1 equal (v_c-1)*50+v_tempb
variable	newtemp2 equal v_newtemp1+50

#Rampa de T
print	  	"Temperature ramp starts"
Temperature ramp starts
fix             1 all npt temp ${newtemp1} ${newtemp2} 0.1 iso 0.0 0.0 1.0
fix             1 all npt temp 1600 ${newtemp2} 0.1 iso 0.0 0.0 1.0
fix             1 all npt temp 1600 1650 0.1 iso 0.0 0.0 1.0
run		${nramp}
run		200000
Per MPI rank memory allocation (min/avg/max) = 12.51 | 12.51 | 12.51 Mbytes
   Step          Temp          PotEng    
   4800000   1613.2566     -80300.931    
   4810000   1607.8968     -80287.158    
   4820000   1597.6265     -80254.587    
   4830000   1597.4687     -80239.328    
   4840000   1609.9448     -80209.589    
   4850000   1602.5705     -80284.161    
   4860000   1624.6605     -80250.979    
   4870000   1612.1588     -80192.605    
   4880000   1607.5084     -80182.784    
   4890000   1607.2605     -80191.849    
   4900000   1623.4925     -80058.72     
   4910000   1642.5958     -80119.11     
   4920000   1629.5334     -80101.583    
   4930000   1639.737      -80076.269    
   4940000   1639.7818     -80034.312    
   4950000   1644.9584     -80079.663    
   4960000   1642.888      -80032.489    
   4970000   1634.9246     -80023.776    
   4980000   1658.0816     -80053.266    
   4990000   1632.9816     -80094.921    
   5000000   1650.2761     -79935.986    
Loop time of 3996.23 on 1 procs for 200000 steps with 21952 atoms

Performance: 4.324 ns/day, 5.550 hours/ns, 50.047 timesteps/s, 1.099 Matom-step/s
82.5% CPU use with 1 MPI tasks x 1 OpenMP threads

MPI task timing breakdown:
Section |  min time  |  avg time  |  max time  |%varavg| %total
---------------------------------------------------------------
Pair    | 3430.2     | 3430.2     | 3430.2     |   0.0 | 85.84
Neigh   | 413.2      | 413.2      | 413.2      |   0.0 | 10.34
Comm    | 19.498     | 19.498     | 19.498     |   0.0 |  0.49
Output  | 0.001219   | 0.001219   | 0.001219   |   0.0 |  0.00
Modify  | 115.22     | 115.22     | 115.22     |   0.0 |  2.88
Other   |            | 18.11      |            |       |  0.45

Nlocal:          21952 ave       21952 max       21952 min
Histogram: 1 0 0 0 0 0 0 0 0 0
Nghost:          12153 ave       12153 max       12153 min
Histogram: 1 0 0 0 0 0 0 0 0 0
Neighs:         522682 ave      522682 max      522682 min
Histogram: 1 0 0 0 0 0 0 0 0 0

Total # of neighbors = 522682
Ave neighs/atom = 23.810222
Neighbor list builds = 22181
Dangerous builds unfixunfix		1

#Equilibrio a nueva T
print	  	"Equilibration starts"
Equilibration starts
fix		2 all npt temp ${newtemp2} ${newtemp2} 0.1 iso 0.0 0.0 1.0
fix		2 all npt temp 1650 ${newtemp2} 0.1 iso 0.0 0.0 1.0
fix		2 all npt temp 1650 1650 0.1 iso 0.0 0.0 1.0
run 		${nequil}
run 		100000
Per MPI rank memory allocation (min/avg/max) = 12.51 | 12.51 | 12.51 Mbytes
   Step          Temp          PotEng    
   5000000   1650.2761     -79935.986    
   5010000   1652.1696     -79947.621    
   5020000   1639.8398     -79963.441    
   5030000   1634.8127     -79979.364    
   5040000   1656.002      -80002.163    
   5050000   1653.633      -79994.613    
   5060000   1647.5915     -79954.422    
   5070000   1645.0705     -79992.153    
   5080000   1658.85       -80038.901    
   5090000   1654.4323     -79982.195    
   5100000   1636.6268     -80018.614    
Loop time of 2004.71 on 1 procs for 100000 steps with 21952 atoms

Performance: 4.310 ns/day, 5.569 hours/ns, 49.882 timesteps/s, 1.095 Matom-step/s
81.5% CPU use with 1 MPI tasks x 1 OpenMP threads

MPI task timing breakdown:
Section |  min time  |  avg time  |  max time  |%varavg| %total
---------------------------------------------------------------
Pair    | 1719.5     | 1719.5     | 1719.5     |   0.0 | 85.77
Neigh   | 208.78     | 208.78     | 208.78     |   0.0 | 10.41
Comm    | 9.785      | 9.785      | 9.785      |   0.0 |  0.49
Output  | 0.000616   | 0.000616   | 0.000616   |   0.0 |  0.00
Modify  | 57.599     | 57.599     | 57.599     |   0.0 |  2.87
Other   |            | 9.058      |            |       |  0.45

Nlocal:          21952 ave       21952 max       21952 min
Histogram: 1 0 0 0 0 0 0 0 0 0
Nghost:          12231 ave       12231 max       12231 min
Histogram: 1 0 0 0 0 0 0 0 0 0
Neighs:         523395 ave      523395 max      523395 min
Histogram: 1 0 0 0 0 0 0 0 0 0

Total # of neighbors = 523395
Ave neighs/atom = 23.842702
Neighbor list builds = 11185
Dangerous buildsunfix	unfix		2

#Se colecta estadistica
print	  	"Stats collecting starts"
Stats collecting starts
fix		3 all npt temp ${newtemp2} ${newtemp2} 0.1 iso 0.0 0.0 1.0
fix		3 all npt temp 1650 ${newtemp2} 0.1 iso 0.0 0.0 1.0
fix		3 all npt temp 1650 1650 0.1 iso 0.0 0.0 1.0
dump            3 all custom ${ndump} dump.${newtemp2} id type x y z c_peratom fx fy fz
dump            3 all custom 5000 dump.${newtemp2} id type x y z c_peratom fx fy fz
dump            3 all custom 5000 dump.1650 id type x y z c_peratom fx fy fz
dump_modify   	3 element Au

#neigh_modify    once yes
run		${nstat}
run		100000
Per MPI rank memory allocation (min/avg/max) = 16.77 | 16.77 | 16.77 Mbytes
   Step          Temp          PotEng    
   5100000   1636.6268     -80018.614    
   5110000   1650.7333     -79968.348    
   5120000   1640.235      -80009.036    
   5130000   1663.4864     -80014.643    
   5140000   1644.856      -80041.362    
   5150000   1656.2453     -80001.048    
   5160000   1646.9404     -79965.8      
   5170000   1660.5868     -80030.352    
   5180000   1657.7394     -80043.178    
   5190000   1639.4159     -80021.761    
   5200000   1658.1444     -79971.845    
Loop time of 2003.14 on 1 procs for 100000 steps with 21952 atoms

Performance: 4.313 ns/day, 5.564 hours/ns, 49.922 timesteps/s, 1.096 Matom-step/s
81.5% CPU use with 1 MPI tasks x 1 OpenMP threads

MPI task timing breakdown:
Section |  min time  |  avg time  |  max time  |%varavg| %total
---------------------------------------------------------------
Pair    | 1716.7     | 1716.7     | 1716.7     |   0.0 | 85.70
Neigh   | 208.71     | 208.71     | 208.71     |   0.0 | 10.42
Comm    | 9.7974     | 9.7974     | 9.7974     |   0.0 |  0.49
Output  | 1.3117     | 1.3117     | 1.3117     |   0.0 |  0.07
Modify  | 57.527     | 57.527     | 57.527     |   0.0 |  2.87
Other   |            | 9.051      |            |       |  0.45

Nlocal:          21952 ave       21952 max       21952 min
Histogram: 1 0 0 0 0 0 0 0 0 0
Nghost:          12208 ave       12208 max       12208 min
Histogram: 1 0 0 0 0 0 0 0 0 0
Neighs:         522323 ave      522323 max      522323 min
Histogram: 1 0 0 0 0 0 0 0 0 0

Total # of neighbors = 522323
Ave neighs/atom = 23.793868
Neighbor list builds = 11183
Dangerous buildunfix		unfix		3
undump		3

#if "${newtemp2} > ${temp2}" then "jump SELF break3"
next c
jump SELF loop3
variable	c loop ${n3}
variable	c loop 7
variable	newtemp1 equal (v_c-1)*50+v_tempb
variable	newtemp2 equal v_newtemp1+50

#Rampa de T
print	  	"Temperature ramp starts"
Temperature ramp starts
fix             1 all npt temp ${newtemp1} ${newtemp2} 0.1 iso 0.0 0.0 1.0
fix             1 all npt temp 1650 ${newtemp2} 0.1 iso 0.0 0.0 1.0
fix             1 all npt temp 1650 1700 0.1 iso 0.0 0.0 1.0
run		${nramp}
run		200000
Per MPI rank memory allocation (min/avg/max) = 12.51 | 12.51 | 12.51 Mbytes
   Step          Temp          PotEng    
   5200000   1658.1444     -79971.845    
   5210000   1644.0705     -79951.656    
   5220000   1661.2444     -79960.828    
   5230000   1663.507      -79951.725    
   5240000   1657.7358     -79952.14     
   5250000   1661.8406     -79886.581    
   5260000   1672.3416     -79932.483    
   5270000   1684.1729     -79873.418    
   5280000   1666.8953     -79900.432    
   5290000   1674.5333     -79920.532    
   5300000   1668.6123     -79836.72     
   5310000   1690.196      -79802.47     
   5320000   1691.7655     -79791.25     
   5330000   1682.7809     -79840.089    
   5340000   1683.2461     -79736.078    
   5350000   1698.4231     -79787.709    
   5360000   1687.0876     -79669.031    
   5370000   1690.5011     -79657.31     
   5380000   1693.1878     -79731.574    
   5390000   1704.031      -79689.166    
   5400000   1701.7369     -79710.009    
Loop time of 4010.43 on 1 procs for 200000 steps with 21952 atoms

Performance: 4.309 ns/day, 5.570 hours/ns, 49.870 timesteps/s, 1.095 Matom-step/s
81.3% CPU use with 1 MPI tasks x 1 OpenMP threads

MPI task timing breakdown:
Section |  min time  |  avg time  |  max time  |%varavg| %total
---------------------------------------------------------------
Pair    | 3437       | 3437       | 3437       |   0.0 | 85.70
Neigh   | 420.66     | 420.66     | 420.66     |   0.0 | 10.49
Comm    | 19.573     | 19.573     | 19.573     |   0.0 |  0.49
Output  | 0.001259   | 0.001259   | 0.001259   |   0.0 |  0.00
Modify  | 115.11     | 115.11     | 115.11     |   0.0 |  2.87
Other   |            | 18.04      |            |       |  0.45

Nlocal:          21952 ave       21952 max       21952 min
Histogram: 1 0 0 0 0 0 0 0 0 0
Nghost:          12207 ave       12207 max       12207 min
Histogram: 1 0 0 0 0 0 0 0 0 0
Neighs:         522257 ave      522257 max      522257 min
Histogram: 1 0 0 0 0 0 0 0 0 0

Total # of neighbors = 522257
Ave neighs/atom = 23.790862
Neighbor list builds = 22518
Dangerous buildunfix		unfix		1

#Equilibrio a nueva T
print	  	"Equilibration starts"
Equilibration starts
fix		2 all npt temp ${newtemp2} ${newtemp2} 0.1 iso 0.0 0.0 1.0
fix		2 all npt temp 1700 ${newtemp2} 0.1 iso 0.0 0.0 1.0
fix		2 all npt temp 1700 1700 0.1 iso 0.0 0.0 1.0
run 		${nequil}
run 		100000
Per MPI rank memory allocation (min/avg/max) = 12.51 | 12.51 | 12.51 Mbytes
   Step          Temp          PotEng    
   5400000   1701.7369     -79710.009    
   5410000   1703.5916     -79693.476    
   5420000   1683.4339     -79735.711    
   5430000   1718.0612     -79716.973    
   5440000   1689.4371     -79748.519    
   5450000   1706.8663     -79686.373    
   5460000   1709.5986     -79707.943    
   5470000   1717.5173     -79660.508    
   5480000   1691.7435     -79669.636    
   5490000   1690.3638     -79627.516    
   5500000   1719.8517     -79722.409    
Loop time of 2005.42 on 1 procs for 100000 steps with 21952 atoms

Performance: 4.308 ns/day, 5.571 hours/ns, 49.865 timesteps/s, 1.095 Matom-step/s
81.0% CPU use with 1 MPI tasks x 1 OpenMP threads

MPI task timing breakdown:
Section |  min time  |  avg time  |  max time  |%varavg| %total
---------------------------------------------------------------
Pair    | 1717.3     | 1717.3     | 1717.3     |   0.0 | 85.63
Neigh   | 211.63     | 211.63     | 211.63     |   0.0 | 10.55
Comm    | 9.8486     | 9.8486     | 9.8486     |   0.0 |  0.49
Output  | 0.000607   | 0.000607   | 0.000607   |   0.0 |  0.00
Modify  | 57.561     | 57.561     | 57.561     |   0.0 |  2.87
Other   |            | 9.06       |            |       |  0.45

Nlocal:          21952 ave       21952 max       21952 min
Histogram: 1 0 0 0 0 0 0 0 0 0
Nghost:          12241 ave       12241 max       12241 min
Histogram: 1 0 0 0 0 0 0 0 0 0
Neighs:         521534 ave      521534 max      521534 min
Histogram: 1 0 0 0 0 0 0 0 0 0

Total # of neighbors = 521534
Ave neighs/atom = 23.757926
Neighbor list builds = 11310
Dangerous buildunfix		unfix		2

#Se colecta estadistica
print	  	"Stats collecting starts"
Stats collecting starts
fix		3 all npt temp ${newtemp2} ${newtemp2} 0.1 iso 0.0 0.0 1.0
fix		3 all npt temp 1700 ${newtemp2} 0.1 iso 0.0 0.0 1.0
fix		3 all npt temp 1700 1700 0.1 iso 0.0 0.0 1.0
dump            3 all custom ${ndump} dump.${newtemp2} id type x y z c_peratom fx fy fz
dump            3 all custom 5000 dump.${newtemp2} id type x y z c_peratom fx fy fz
dump            3 all custom 5000 dump.1700 id type x y z c_peratom fx fy fz
dump_modify   	3 element Au

#neigh_modify    once yes
run		${nstat}
run		100000
Per MPI rank memory allocation (min/avg/max) = 16.77 | 16.77 | 16.77 Mbytes
   Step          Temp          PotEng    
   5500000   1719.8517     -79722.409    
   5510000   1695.043      -79610.126    
   5520000   1695.5496     -79782.501    
   5530000   1695.498      -79712.837    
   5540000   1689.5021     -79687.672    
   5550000   1705.1079     -79664.55     
   5560000   1692.0908     -79675.233    
   5570000   1695.0131     -79667.979    
   5580000   1691.2959     -79631.291    
   5590000   1701.8761     -79701.319    
   5600000   1700.606      -79611.576    
Loop time of 2006.93 on 1 procs for 100000 steps with 21952 atoms

Performance: 4.305 ns/day, 5.575 hours/ns, 49.827 timesteps/s, 1.094 Matom-step/s
80.5% CPU use with 1 MPI tasks x 1 OpenMP threads

MPI task timing breakdown:
Section |  min time  |  avg time  |  max time  |%varavg| %total
---------------------------------------------------------------
Pair    | 1716.5     | 1716.5     | 1716.5     |   0.0 | 85.53
Neigh   | 212.18     | 212.18     | 212.18     |   0.0 | 10.57
Comm    | 9.9708     | 9.9708     | 9.9708     |   0.0 |  0.50
Output  | 1.3128     | 1.3128     | 1.3128     |   0.0 |  0.07
Modify  | 57.838     | 57.838     | 57.838     |   0.0 |  2.88
Other   |            | 9.105      |            |       |  0.45

Nlocal:          21952 ave       21952 max       21952 min
Histogram: 1 0 0 0 0 0 0 0 0 0
Nghost:          12230 ave       12230 max       12230 min
Histogram: 1 0 0 0 0 0 0 0 0 0
Neighs:         521314 ave      521314 max      521314 min
Histogram: 1 0 0 0 0 0 0 0 0 0

Total # of neighbors = 521314
Ave neighs/atom = 23.747905
Neighbor list builds = 11347
Dangerous builds = 0
unfix		3
undump		3

#if "${newtemp2} > ${temp2}" then "jump SELF break3"
next c
jump SELF loop3

#label break3
unfix		5
ERROR: Could not find fix ID 5 to delete (src/modify.cpp:1059)
Last command: unfix		5
