LAMMPS (22 Dec 2022)
OMP_NUM_THREADS environment is not set. Defaulting to 1 thread. (src/comm.cpp:98)
  using 1 OpenMP thread(s) per MPI task
package omp 4
set 4 OpenMP thread(s) per MPI task
using multi-threaded neighbor list subroutines

# INITIALIZATION
dimension 3
boundary p p p
units metal
atom_style atomic
atom_modify map array

# ATOM DEFINITION
read_data	supercell.lmp
Reading data file ...
  orthogonal box = (0 0 0) to (54.46 54.46 54.46)
  1 by 1 by 1 MPI processor grid
  reading atoms ...
  10976 atoms
  read_data CPU = 0.033 seconds

# DEFINE INTERATOMIC POTENTIAL
pair_style eam/opt
pair_coeff * * Pd_u3.eam
Reading eam potential file Pd_u3.eam with DATE: 2007-06-11
neigh_modify delay 10 check yes

#Langevin random seed
variable r equal 57085
variable t equal 4000
variable d equal 1

# initialize
velocity all create $t 28459 rot yes dist gaussian mom yes
velocity all create 4000 28459 rot yes dist gaussian mom yes
reset_timestep 0

# fixes
fix      1 all nvt temp $t $t $d pchain 8 drag 1.0
fix      1 all nvt temp 4000 $t $d pchain 8 drag 1.0
fix      1 all nvt temp 4000 4000 $d pchain 8 drag 1.0
fix      1 all nvt temp 4000 4000 1 pchain 8 drag 1.0

#
timestep 2e-3

# output
#                    1    2    3  4  5     6   7  8  9  10 11 12
thermo_style  custom step temp pe ke press vol lx ly lz xy xz yz
thermo  100

restart 2000000 restart.one restart.two

dump    	3 all custom 100000 Au_liquid.lmp id type x y z
dump    	4 all atom 100000 Dump_Au.lmp

# execution
run 	 2000000
No /omp style for force computation currently active
Neighbor list info ...
  update: every = 1 steps, delay = 10 steps, check = yes
  max neighbors/atom: 2000, page size: 100000
  master list distance cutoff = 7.3
  ghost atom cutoff = 7.3
  binsize = 3.65, bins = 15 15 15
  1 neighbor lists, perpetual/occasional/extra = 1 0 0
  (1) pair eam/opt, perpetual
      attributes: half, newton on, omp
      pair build: half/bin/atomonly/newton/omp
      stencil: half/bin/3d
      bin: standard
Per MPI rank memory allocation (min/avg/max) = 15.49 | 15.49 | 15.49 Mbytes
   Step          Temp          PotEng         KinEng         Press          Volume           Lx             Ly             Lz             Xy             Xz             Yz      
         0   4000          -42916.16       5674.5204      37524.518      161522.46      54.46          54.46          54.46          0              0              0            
       100   1845.5783     -39822.27       2618.193       124996.22      161522.46      54.46          54.46          54.46          0              0              0            
       200   1950.2487     -39915.49       2766.6816      123255.64      161522.46      54.46          54.46          54.46          0              0              0            
       300   2004.4148     -39927.931      2843.5231      123513.32      161522.46      54.46          54.46          54.46          0              0              0            
       400   2010.725      -39869.297      2852.475       125781.54      161522.46      54.46          54.46          54.46          0              0              0            
       500   2062.2557     -39873.094      2925.578       125825.12      161522.46      54.46          54.46          54.46          0              0              0            
       600   2074.8793     -39820.9        2943.4862      128046.29      161522.46      54.46          54.46          54.46          0              0              0            
       700   2097.5783     -39782.4        2975.6876      129526.46      161522.46      54.46          54.46          54.46          0              0              0            
       800   2095.6888     -39708.461      2973.0072      131973.09      161522.46      54.46          54.46          54.46          0              0              0            
       900   2140.1777     -39700.114      3036.1204      132533.08      161522.46      54.46          54.46          54.46          0              0              0            
      1000   2173.1587     -39675.065      3082.9083      133753         161522.46      54.46          54.46          54.46          0              0              0            
      1100   2157.8025     -39581.506      3061.1236      136595.8       161522.46      54.46          54.46          54.46          0              0              0            
      1200   2214.3344     -39589.643      3141.3214      137080.62      161522.46      54.46          54.46          54.46          0              0              0            
      1300   2217.5778     -39522.015      3145.9227      139674.25      161522.46      54.46          54.46          54.46          0              0              0            
      1400   2252.9675     -39499.563      3196.1275      140503.47      161522.46      54.46          54.46          54.46          0              0              0            
      1500   2263.6776     -39441.984      3211.3211      142598.07      161522.46      54.46          54.46          54.46          0              0              0            
      1600   2290.372      -39407.186      3249.1907      144128.91      161522.46      54.46          54.46          54.46          0              0              0            
      1700   2326.9435     -39386.267      3301.072       145340.71      161522.46      54.46          54.46          54.46          0              0              0            
      1800   2345.4041     -39339.494      3327.2608      147229.71      161522.46      54.46          54.46          54.46          0              0              0            
      1900   2354.4016     -39279.582      3340.0249      148784.4       161522.46      54.46          54.46          54.46          0              0              0            
      2000   2355.2188     -39207.795      3341.1843      151684.63      161522.46      54.46          54.46          54.46          0              0              0            
      2100   2397.6359     -39194.98       3401.3584      152491.93      161522.46      54.46          54.46          54.46          0              0              0            
      2200   2411.8689     -39142.055      3421.5499      154241.31      161522.46      54.46          54.46          54.46          0              0              0            
      2300   2423.1502     -39085.191      3437.5538      156185.67      161522.46      54.46          54.46          54.46          0              0              0            
      2400   2438.9302     -39034.544      3459.9397      158357.96      161522.46      54.46          54.46          54.46          0              0              0            
      2500   2469.6541     -39005.232      3503.5256      159576.38      161522.46      54.46          54.46          54.46          0              0              0            
      2600   2483.3177     -38951.597      3522.9092      161440.55      161522.46      54.46          54.46          54.46          0              0              0            
      2700   2506.986      -38912.444      3556.4857      163001.94      161522.46      54.46          54.46          54.46          0              0              0            
      2800   2539.678      -38885.901      3602.8636      164213.59      161522.46      54.46          54.46          54.46          0              0              0            
      2900   2542.9745     -38817.76       3607.5401      166529.19      161522.46      54.46          54.46          54.46          0              0              0            
      3000   2557.6284     -38765.849      3628.3287      168240.17      161522.46      54.46          54.46          54.46          0              0              0            
      3100   2539.6905     -38667.965      3602.8813      171761.71      161522.46      54.46          54.46          54.46          0              0              0            
      3200   2568.0728     -38635.891      3643.1454      173161.09      161522.46      54.46          54.46          54.46          0              0              0            
      3300   2549.9229     -38537.883      3617.3974      176101.5       161522.46      54.46          54.46          54.46          0              0              0            
      3400   2589.6862     -38521.935      3673.8068      176717.97      161522.46      54.46          54.46          54.46          0              0              0            
      3500   2572.1855     -38424.853      3648.9798      179910.06      161522.46      54.46          54.46          54.46          0              0              0            
      3600   2579.1537     -38362.77       3658.8651      182096.38      161522.46      54.46          54.46          54.46          0              0              0            
      3700   2549.4322     -38248.673      3616.7013      185728.19      161522.46      54.46          54.46          54.46          0              0              0            
      3800   2527.5217     -38145.771      3585.6183      188961.76      161522.46      54.46          54.46          54.46          0              0              0            
      3900   2513.9308     -38054.495      3566.3379      191727.81      161522.46      54.46          54.46          54.46          0              0              0            
      4000   2495.4675     -37956.178      3540.1453      195354.82      161522.46      54.46          54.46          54.46          0              0              0            
      4100   2498.4778     -37888.383      3544.4158      197039.77      161522.46      54.46          54.46          54.46          0              0              0            
      4200   2511.1765     -37834.146      3562.4305      198900.38      161522.46      54.46          54.46          54.46          0              0              0            
      4300   2541.7799     -37805.12       3605.8455      200174.57      161522.46      54.46          54.46          54.46          0              0              0            
      4400   2558.7978     -37756.772      3629.9875      201946.27      161522.46      54.46          54.46          54.46          0              0              0            
      4500   2576.031      -37708.507      3654.4351      204114.56      161522.46      54.46          54.46          54.46          0              0              0            
      4600   2604.3646     -37676.045      3694.63        205081.63      161522.46      54.46          54.46          54.46          0              0              0            
      4700   2640.7977     -37655.196      3746.315       206452.74      161522.46      54.46          54.46          54.46          0              0              0            
      4800   2644.518      -37588.101      3751.5929      208857.1       161522.46      54.46          54.46          54.46          0              0              0            
      4900   2640.9604     -37510.911      3746.5459      211171.62      161522.46      54.46          54.46          54.46          0              0              0            
      5000   2706.2856     -37531.505      3839.2183      211169.56      161522.46      54.46          54.46          54.46          0              0              0            
      5100   2711.9325     -37467.555      3847.229       213645.72      161522.46      54.46          54.46          54.46          0              0              0            
      5200   2750.4103     -37450.49       3901.8148      214261.31      161522.46      54.46          54.46          54.46          0              0              0            
      5300   2743.1188     -37368.881      3891.4708      216898.3       161522.46      54.46          54.46          54.46          0              0              0            
      5400   2792.9407     -37368.466      3962.1497      217339.65      161522.46      54.46          54.46          54.46          0              0              0            
      5500   2836.6408     -37359.597      4024.144       218361.13      161522.46      54.46          54.46          54.46          0              0              0            
      5600   2851.6421     -37310.601      4045.4253      219759.59      161522.46      54.46          54.46          54.46          0              0              0            
      5700   2866.18       -37261.118      4066.0492      221682.93      161522.46      54.46          54.46          54.46          0              0              0            
      5800   2898.5842     -37237.344      4112.0188      223257.05      161522.46      54.46          54.46          54.46          0              0              0            
      5900   2908.6841     -37182.506      4126.3468      224535.96      161522.46      54.46          54.46          54.46          0              0              0            
      6000   2904.0199     -37107.137      4119.73        227523.1       161522.46      54.46          54.46          54.46          0              0              0            
      6100   2978.1638     -37143.908      4224.9128      226328.21      161522.46      54.46          54.46          54.46          0              0              0            
      6200   3005.5183     -37114.698      4263.7188      227938.97      161522.46      54.46          54.46          54.46          0              0              0            
      6300   3004.8694     -37046.494      4262.7981      230602.8       161522.46      54.46          54.46          54.46          0              0              0            
      6400   3036.3366     -37024.254      4307.4385      231074.36      161522.46      54.46          54.46          54.46          0              0              0            
      6500   3077.0849     -37015.713      4365.2453      231803.34      161522.46      54.46          54.46          54.46          0              0              0            
      6600   3118.1465     -37008.279      4423.4965      232886.66      161522.46      54.46          54.46          54.46          0              0              0            
      6700   3129.4454     -36959.348      4439.5254      233849.88      161522.46      54.46          54.46          54.46          0              0              0            
      6800   3158.1402     -36935.58       4480.2327      235737.21      161522.46      54.46          54.46          54.46          0              0              0            
      6900   3165.427      -36882.23       4490.5701      236859.28      161522.46      54.46          54.46          54.46          0              0              0            
      7000   3190.3793     -36854.555      4525.9681      238576.86      161522.46      54.46          54.46          54.46          0              0              0            
      7100   3197.8193     -36802.563      4536.5227      240688.61      161522.46      54.46          54.46          54.46          0              0              0            
      7200   3259.8084     -36828.81       4624.4622      240343.94      161522.46      54.46          54.46          54.46          0              0              0            
      7300   3236.2324     -36734.273      4591.0167      242664.09      161522.46      54.46          54.46          54.46          0              0              0            
      7400   3289.8342     -36749.989      4667.0579      243872.32      161522.46      54.46          54.46          54.46          0              0              0            
      7500   3268.6761     -36660.265      4637.0423      246005.62      161522.46      54.46          54.46          54.46          0              0              0            
      7600   3308.9593     -36658.406      4694.1893      246226.93      161522.46      54.46          54.46          54.46          0              0              0            
      7700   3359.3895     -36671.885      4765.7311      246964.15      161522.46      54.46          54.46          54.46          0              0              0            
      7800   3358.6712     -36613.77       4764.712       248394.54      161522.46      54.46          54.46          54.46          0              0              0            
      7900   3368.581      -36571.527      4778.7704      250202.51      161522.46      54.46          54.46          54.46          0              0              0            
      8000   3385.0388     -36539.199      4802.118       251358.21      161522.46      54.46          54.46          54.46          0              0              0            
      8100   3415.9673     -36528.186      4845.994       251990.96      161522.46      54.46          54.46          54.46          0              0              0            
      8200   3428.0286     -36491.448      4863.1045      252516.08      161522.46      54.46          54.46          54.46          0              0              0            
      8300   3434.8745     -36447.998      4872.8163      254282.28      161522.46      54.46          54.46          54.46          0              0              0            
      8400   3446.5114     -36412.604      4889.3247      255257.61      161522.46      54.46          54.46          54.46          0              0              0            
      8500   3492.0841     -36426.554      4953.9756      255466.12      161522.46      54.46          54.46          54.46          0              0              0            
      8600   3479.5731     -36358.766      4936.2272      258047.08      161522.46      54.46          54.46          54.46          0              0              0            
      8700   3504.2917     -36344.383      4971.2937      259368.97      161522.46      54.46          54.46          54.46          0              0              0            
      8800   3549.8031     -36361.034      5035.8575      258423.31      161522.46      54.46          54.46          54.46          0              0              0            
      8900   3529.8221     -36285.971      5007.5119      261226.9       161522.46      54.46          54.46          54.46          0              0              0            
      9000   3580.7998     -36311.68       5079.8304      260682.5       161522.46      54.46          54.46          54.46          0              0              0            
      9100   3607.7017     -36304.549      5117.9942      260497.15      161522.46      54.46          54.46          54.46          0              0              0            
      9200   3614.0765     -36269.265      5127.0376      261825.89      161522.46      54.46          54.46          54.46          0              0              0            
      9300   3637.6446     -36259.318      5160.4721      263217.42      161522.46      54.46          54.46          54.46          0              0              0            
      9400   3665.15       -36256.477      5199.4921      263278.5       161522.46      54.46          54.46          54.46          0              0              0            
      9500   3659.8433     -36207.793      5191.9638      265133.1       161522.46      54.46          54.46          54.46          0              0              0            
      9600   3666.3596     -36177.676      5201.208       265362.35      161522.46      54.46          54.46          54.46          0              0              0            
      9700   3674.7703     -36150.995      5213.1398      266605.82      161522.46      54.46          54.46          54.46          0              0              0            
      9800   3716.6491     -36172.578      5272.5502      266739.28      161522.46      54.46          54.46          54.46          0              0              0            
      9900   3709.9077     -36126.194      5262.9868      267531.29      161522.46      54.46          54.46          54.46          0              0              0            
     10000   3730.2115     -36119.872      5291.7902      267812.84      161522.46      54.46          54.46          54.46          0              0              0            
     10100   3735.8791     -36093.519      5299.8306      269501.66      161522.46      54.46          54.46          54.46          0              0              0            
     10200   3716.9566     -36032.918      5272.9864      270547.59      161522.46      54.46          54.46          54.46          0              0              0            
     10300   3775.7013     -36082.331      5356.3235      270069.89      161522.46      54.46          54.46          54.46          0              0              0            
     10400   3770.6993     -36042.051      5349.2275      271570.58      161522.46      54.46          54.46          54.46          0              0              0            
     10500   3815.3918     -36074.538      5412.6296      270239.61      161522.46      54.46          54.46          54.46          0              0              0            
     10600   3817.2051     -36047.482      5415.2021      271578.92      161522.46      54.46          54.46          54.46          0              0              0            
     10700   3824.5002     -36028.231      5425.5511      271873.9       161522.46      54.46          54.46          54.46          0              0              0            
     10800   3836.1416     -36017.045      5442.0659      272082.5       161522.46      54.46          54.46          54.46          0              0              0            
     10900   3848.3042     -36007.857      5459.3202      273026.15      161522.46      54.46          54.46          54.46          0              0              0            
     11000   3867.0127     -36008.893      5485.8606      273163.32      161522.46      54.46          54.46          54.46          0              0              0            
     11100   3870.271      -35989.414      5490.483       274447.8       161522.46      54.46          54.46          54.46          0              0              0            
     11200   3854.209      -35942.208      5467.6968      275285.18      161522.46      54.46          54.46          54.46          0              0              0            
     11300   3906.5407     -35992.902      5541.9362      273589.09      161522.46      54.46          54.46          54.46          0              0              0            
     11400   3826.4463     -35856.876      5428.3118      277673.16      161522.46      54.46          54.46          54.46          0              0              0            
     11500   3930.4589     -35982.986      5575.8672      274594.05      161522.46      54.46          54.46          54.46          0              0              0            
     11600   3927.2452     -35959.558      5571.3083      275874.88      161522.46      54.46          54.46          54.46          0              0              0            
     11700   3933.6932     -35949.958      5580.4555      276446.76      161522.46      54.46          54.46          54.46          0              0              0            
     11800   3893.2277     -35874.275      5523.0499      278029.6       161522.46      54.46          54.46          54.46          0              0              0            
     11900   3941.4205     -35925.058      5591.4178      276601.67      161522.46      54.46          54.46          54.46          0              0              0            
     12000   3913.4285     -35868.129      5551.7074      278332.92      161522.46      54.46          54.46          54.46          0              0              0            
     12100   3927.1401     -35870.612      5571.1591      278965.77      161522.46      54.46          54.46          54.46          0              0              0            
     12200   3924.6035     -35850.926      5567.5606      279079.72      161522.46      54.46          54.46          54.46          0              0              0            
     12300   3949.9025     -35871.526      5603.4506      278802.97      161522.46      54.46          54.46          54.46          0              0              0            
     12400   3933.5832     -35834.695      5580.2995      279764.97      161522.46      54.46          54.46          54.46          0              0              0            
     12500   3960.3563     -35858.499      5618.2806      278951.74      161522.46      54.46          54.46          54.46          0              0              0            
     12600   3988.7882     -35886.212      5658.6149      278686.35      161522.46      54.46          54.46          54.46          0              0              0            
     12700   3969.0894     -35847.568      5630.6697      279231.49      161522.46      54.46          54.46          54.46          0              0              0            
     12800   4012.9706     -35901.665      5692.9208      278676.14      161522.46      54.46          54.46          54.46          0              0              0            
     12900   3939.5974     -35789.613      5588.8314      281681.41      161522.46      54.46          54.46          54.46          0              0              0            
     13000   4022.8471     -35900.3        5706.9319      278090.86      161522.46      54.46          54.46          54.46          0              0              0            
     13100   3967.9038     -35815.395      5628.9877      281300.93      161522.46      54.46          54.46          54.46          0              0              0            
     13200   3995.1975     -35847.536      5667.7074      280054.71      161522.46      54.46          54.46          54.46          0              0              0            
     13300   3968.9239     -35804.499      5630.4349      280863.49      161522.46      54.46          54.46          54.46          0              0              0            
     13400   3979.596      -35814.171      5645.5747      280591.02      161522.46      54.46          54.46          54.46          0              0              0            
     13500   4008.8229     -35850.964      5687.0368      279885.6       161522.46      54.46          54.46          54.46          0              0              0            
     13600   4003.609      -35838.964      5679.6402      280481.81      161522.46      54.46          54.46          54.46          0              0              0            
     13700   3981.1512     -35802.193      5647.7809      280828.86      161522.46      54.46          54.46          54.46          0              0              0            
     13800   3990.4632     -35809.674      5660.9912      280823.81      161522.46      54.46          54.46          54.46          0              0              0            
     13900   4037.0516     -35869.509      5727.0829      279125.28      161522.46      54.46          54.46          54.46          0              0              0            
     14000   4013.4544     -35831.282      5693.6072      280698.68      161522.46      54.46          54.46          54.46          0              0              0            
     14100   3983.1199     -35783.835      5650.5738      281536.31      161522.46      54.46          54.46          54.46          0              0              0            
     14200   4032.3897     -35850.864      5720.4694      279967.9       161522.46      54.46          54.46          54.46          0              0              0            
     14300   4021.448      -35832.809      5704.9472      280482.65      161522.46      54.46          54.46          54.46          0              0              0            
     14400   4023.0523     -35832.719      5707.223       281104.01      161522.46      54.46          54.46          54.46          0              0              0            
     14500   3989.1534     -35783.757      5659.1331      281777.09      161522.46      54.46          54.46          54.46          0              0              0            
     14600   4010.0631     -35812.624      5688.7962      280784.39      161522.46      54.46          54.46          54.46          0              0              0            
     14700   3961.565      -35742.915      5619.9953      282264.14      161522.46      54.46          54.46          54.46          0              0              0            
     14800   4004.1592     -35801.125      5680.4208      281544.13      161522.46      54.46          54.46          54.46          0              0              0            
     14900   3980.2855     -35764.076      5646.5528      282461.15      161522.46      54.46          54.46          54.46          0              0              0            
     15000   3990.7988     -35777.461      5661.4672      281992.86      161522.46      54.46          54.46          54.46          0              0              0            
     15100   4015.866      -35813.015      5697.0283      280752.84      161522.46      54.46          54.46          54.46          0              0              0            
     15200   3973.485      -35754.131      5636.9054      283280.65      161522.46      54.46          54.46          54.46          0              0              0            
     15300   4014.3707     -35813.242      5694.907       281096.46      161522.46      54.46          54.46          54.46          0              0              0            
     15400   4023.0062     -35826.484      5707.1576      280872.41      161522.46      54.46          54.46          54.46          0              0              0            
     15500   3962.2332     -35742.422      5620.9433      282453.91      161522.46      54.46          54.46          54.46          0              0              0            
     15600   4003.4385     -35802.009      5679.3984      281692.36      161522.46      54.46          54.46          54.46          0              0              0            
     15700   4017.0035     -35821.649      5698.642       280639.16      161522.46      54.46          54.46          54.46          0              0              0            
     15800   4005.7273     -35807.263      5682.6453      281284.77      161522.46      54.46          54.46          54.46          0              0              0            
     15900   4001.2729     -35803.101      5676.3261      281697.89      161522.46      54.46          54.46          54.46          0              0              0            
     16000   3973.1183     -35764.208      5636.3851      281596.88      161522.46      54.46          54.46          54.46          0              0              0            
     16100   3988.3634     -35787.177      5658.0123      281770.16      161522.46      54.46          54.46          54.46          0              0              0            
     16200   4002.393      -35808.419      5677.9151      281354.61      161522.46      54.46          54.46          54.46          0              0              0            
     16300   3973.3388     -35767.763      5636.698       281796.68      161522.46      54.46          54.46          54.46          0              0              0            
     16400   4010.145      -35819.525      5688.9123      281399.07      161522.46      54.46          54.46          54.46          0              0              0            
     16500   4026.8055     -35842.643      5712.5474      281359.02      161522.46      54.46          54.46          54.46          0              0              0            
     16600   3995.0413     -35797.375      5667.4858      281039.76      161522.46      54.46          54.46          54.46          0              0              0            
     16700   4003.29       -35808.588      5679.1877      280630.06      161522.46      54.46          54.46          54.46          0              0              0            
     16800   3991.1815     -35790.447      5662.0102      281422.26      161522.46      54.46          54.46          54.46          0              0              0            
     16900   4015.8249     -35824.867      5696.9701      280691.94      161522.46      54.46          54.46          54.46          0              0              0            
     17000   3991.1462     -35789.482      5661.9601      281470.66      161522.46      54.46          54.46          54.46          0              0              0            
     17100   3972.7155     -35763.24       5635.8137      282099.13      161522.46      54.46          54.46          54.46          0              0              0            
     17200   3979.7515     -35773.513      5645.7952      281771.12      161522.46      54.46          54.46          54.46          0              0              0            
     17300   3973.0037     -35764.131      5636.2227      281861.15      161522.46      54.46          54.46          54.46          0              0              0            
     17400   4011.2605     -35818.232      5690.4949      280255.86      161522.46      54.46          54.46          54.46          0              0              0            
     17500   4028.6989     -35842.35       5715.2335      280448.98      161522.46      54.46          54.46          54.46          0              0              0            
     17600   3987.2175     -35783.464      5656.3868      282212.08      161522.46      54.46          54.46          54.46          0              0              0            
     17700   4020.8798     -35831.953      5704.1411      279943.76      161522.46      54.46          54.46          54.46          0              0              0            
     17800   4018.4593     -35830.286      5700.7072      280766.37      161522.46      54.46          54.46          54.46          0              0              0            
     17900   4012.6947     -35823.354      5692.5295      281095.51      161522.46      54.46          54.46          54.46          0              0              0            
     18000   4026.8659     -35844.776      5712.6331      280603.69      161522.46      54.46          54.46          54.46          0              0              0            
     18100   3970.8504     -35766.18       5633.1679      282051.19      161522.46      54.46          54.46          54.46          0              0              0            
     18200   4022.2009     -35838.761      5706.0152      280298.87      161522.46      54.46          54.46          54.46          0              0              0            
     18300   4001.7328     -35809.328      5676.9786      280549.5       161522.46      54.46          54.46          54.46          0              0              0            
     18400   4036.6639     -35859.113      5726.5329      279890.91      161522.46      54.46          54.46          54.46          0              0              0            
     18500   3985.9616     -35788.826      5654.605       281783.36      161522.46      54.46          54.46          54.46          0              0              0            
     18600   4009.8755     -35824.657      5688.5301      280382.56      161522.46      54.46          54.46          54.46          0              0              0            
     18700   4008.4361     -35824.499      5686.4881      280804.53      161522.46      54.46          54.46          54.46          0              0              0            
     18800   4001.6666     -35815.268      5676.8847      280482.87      161522.46      54.46          54.46          54.46          0              0              0            
     18900   3986.1402     -35794.003      5654.8585      280894.86      161522.46      54.46          54.46          54.46          0              0              0            
     19000   4010.3063     -35827.97       5689.1411      281044.06      161522.46      54.46          54.46          54.46          0              0              0            
     19100   4005.5545     -35820.579      5682.4001      281046.88      161522.46      54.46          54.46          54.46          0              0              0            
     19200   3978.9073     -35781.824      5644.5977      282022.12      161522.46      54.46          54.46          54.46          0              0              0            
     19300   3995.9298     -35804.495      5668.7463      281116.69      161522.46      54.46          54.46          54.46          0              0              0            
     19400   4014.3554     -35829.482      5694.8854      281133.32      161522.46      54.46          54.46          54.46          0              0              0            
     19500   4007.335      -35818.729      5684.9261      281461.6       161522.46      54.46          54.46          54.46          0              0              0            
     19600   4044.8646     -35871.028      5738.1667      279743.87      161522.46      54.46          54.46          54.46          0              0              0            
     19700   4024.3917     -35843.098      5709.1232      280766.37      161522.46      54.46          54.46          54.46          0              0              0            
     19800   4003.1879     -35814.814      5679.0428      281074.85      161522.46      54.46          54.46          54.46          0              0              0            
     19900   3997.6375     -35807.401      5671.1689      280854.54      161522.46      54.46          54.46          54.46          0              0              0            
     20000   3999.7987     -35810.359      5674.2348      281119.69      161522.46      54.46          54.46          54.46          0              0              0            
     20100   4029.6956     -35851.992      5716.6474      279382.79      161522.46      54.46          54.46          54.46          0              0              0            
     20200   4001.6954     -35812.083      5676.9255      280898.48      161522.46      54.46          54.46          54.46          0              0              0            
     20300   3996.0124     -35803.94       5668.8635      280314.16      161522.46      54.46          54.46          54.46          0              0              0            
     20400   3984.8557     -35788.199      5653.0362      281831.18      161522.46      54.46          54.46          54.46          0              0              0            
     20500   4040.8027     -35867.126      5732.4042      279197.99      161522.46      54.46          54.46          54.46          0              0              0            
     20600   4004.4584     -35815.816      5680.8452      280920.51      161522.46      54.46          54.46          54.46          0              0              0            
     20700   4024.8831     -35844.769      5709.8203      280296.24      161522.46      54.46          54.46          54.46          0              0              0            
     20800   3992.3882     -35798.88       5663.722       281278.23      161522.46      54.46          54.46          54.46          0              0              0            
     20900   3993.8432     -35800.157      5665.7862      281118.72      161522.46      54.46          54.46          54.46          0              0              0            
     21000   3990.8573     -35794.217      5661.5502      281485.6       161522.46      54.46          54.46          54.46          0              0              0            
     21100   3978.983      -35776.126      5644.7051      282236.11      161522.46      54.46          54.46          54.46          0              0              0            
     21200   4045.3042     -35869.332      5738.7902      280111.13      161522.46      54.46          54.46          54.46          0              0              0            
     21300   4012.1744     -35821.319      5691.7914      281117.49      161522.46      54.46          54.46          54.46          0              0              0            
     21400   4020.1929     -35832.616      5703.1666      280999.6       161522.46      54.46          54.46          54.46          0              0              0            
     21500   3967.5069     -35758.098      5628.4247      282393.62      161522.46      54.46          54.46          54.46          0              0              0            
     21600   4022.8284     -35835.114      5706.9055      280076.32      161522.46      54.46          54.46          54.46          0              0              0            
     21700   3986.0082     -35781.46       5654.6712      281508.72      161522.46      54.46          54.46          54.46          0              0              0            
     21800   3990.4099     -35787.014      5660.9155      281600.76      161522.46      54.46          54.46          54.46          0              0              0            
     21900   3948.5379     -35727.361      5601.5147      283971.08      161522.46      54.46          54.46          54.46          0              0              0            
     22000   4028.1071     -35839.691      5714.394       279850.48      161522.46      54.46          54.46          54.46          0              0              0            
     22100   4015.2308     -35821.325      5696.1273      280245.08      161522.46      54.46          54.46          54.46          0              0              0            
     22200   3994.6        -35791.616      5666.8597      281943.86      161522.46      54.46          54.46          54.46          0              0              0            
     22300   4023.8167     -35831.518      5708.3074      280583.64      161522.46      54.46          54.46          54.46          0              0              0            
     22400   3995.2053     -35789.257      5667.7185      281612.84      161522.46      54.46          54.46          54.46          0              0              0            
     22500   3999.7243     -35793.628      5674.1293      281703.6       161522.46      54.46          54.46          54.46          0              0              0            
     22600   3975.6835     -35758          5640.0242      282590.47      161522.46      54.46          54.46          54.46          0              0              0            
     22700   4023.7268     -35824.498      5708.1799      280963.45      161522.46      54.46          54.46          54.46          0              0              0            
     22800   3963.0013     -35738.339      5622.0329      282740.91      161522.46      54.46          54.46          54.46          0              0              0            
     22900   4041.2117     -35849.261      5732.9845      279838.96      161522.46      54.46          54.46          54.46          0              0              0            
     23000   4005.5614     -35800.146      5682.4099      281317.75      161522.46      54.46          54.46          54.46          0              0              0            
     23100   4022.9732     -35826.399      5707.1108      280544.69      161522.46      54.46          54.46          54.46          0              0              0            
     23200   4008.9754     -35807.639      5687.2531      281509.74      161522.46      54.46          54.46          54.46          0              0              0            
     23300   4034.0801     -35844.023      5722.8674      279988.43      161522.46      54.46          54.46          54.46          0              0              0            
     23400   3997.4408     -35793.85       5670.8899      281405.43      161522.46      54.46          54.46          54.46          0              0              0            
     23500   4015.9702     -35821.377      5697.1761      280447.5       161522.46      54.46          54.46          54.46          0              0              0            
     23600   3950.6328     -35729.751      5604.4865      283096.97      161522.46      54.46          54.46          54.46          0              0              0            
     23700   3983.0124     -35775.939      5650.4213      282136.53      161522.46      54.46          54.46          54.46          0              0              0            
     23800   3977.6787     -35768.313      5642.8547      282662.65      161522.46      54.46          54.46          54.46          0              0              0            
     23900   4000.3761     -35800.219      5675.0539      281096.91      161522.46      54.46          54.46          54.46          0              0              0            
     24000   3998.2422     -35795.927      5672.0267      281767.24      161522.46      54.46          54.46          54.46          0              0              0            
     24100   3965.4988     -35748.426      5625.5759      282873.8       161522.46      54.46          54.46          54.46          0              0              0            
     24200   4021.239      -35825.94       5704.6506      280536.06      161522.46      54.46          54.46          54.46          0              0              0            
     24300   4026.451      -35832.389      5712.0445      280820.23      161522.46      54.46          54.46          54.46          0              0              0            
     24400   4015.3606     -35816.177      5696.3114      281299.47      161522.46      54.46          54.46          54.46          0              0              0            
     24500   4024.6992     -35830.658      5709.5593      280432.29      161522.46      54.46          54.46          54.46          0              0              0            
     24600   4016.2108     -35820.725      5697.5175      280583.47      161522.46      54.46          54.46          54.46          0              0              0            
     24700   4004.5802     -35806.188      5681.018       281121.93      161522.46      54.46          54.46          54.46          0              0              0            
     24800   3982.6016     -35775.822      5649.8385      282483.99      161522.46      54.46          54.46          54.46          0              0              0            
     24900   3992.5949     -35789.998      5664.0153      281517.98      161522.46      54.46          54.46          54.46          0              0              0            
     25000   4006.7773     -35810.847      5684.1348      280840.88      161522.46      54.46          54.46          54.46          0              0              0            
     25100   4002.9043     -35806.511      5678.6405      281699.69      161522.46      54.46          54.46          54.46          0              0              0            
     25200   4011.9885     -35820.078      5691.5277      281505.17      161522.46      54.46          54.46          54.46          0              0              0            
     25300   3991.8889     -35791.885      5663.0137      282050.41      161522.46      54.46          54.46          54.46          0              0              0            
     25400   3978.0404     -35771.795      5643.3678      281277.88      161522.46      54.46          54.46          54.46          0              0              0            
     25500   3976.9032     -35767.879      5641.7545      282385.34      161522.46      54.46          54.46          54.46          0              0              0            
     25600   4006.0399     -35807.702      5683.0888      281272.49      161522.46      54.46          54.46          54.46          0              0              0            
     25700   4024.8413     -35833.549      5709.7609      281134.47      161522.46      54.46          54.46          54.46          0              0              0            
     25800   4024.711      -35834.061      5709.5761      280744.42      161522.46      54.46          54.46          54.46          0              0              0            
     25900   3985.4152     -35779.271      5653.8299      281995.47      161522.46      54.46          54.46          54.46          0              0              0            
     26000   4027.6706     -35840.231      5713.7747      279848.1       161522.46      54.46          54.46          54.46          0              0              0            
     26100   3992.3809     -35792.691      5663.7117      280837.55      161522.46      54.46          54.46          54.46          0              0              0            
     26200   3991.0742     -35792.72       5661.858       281599.27      161522.46      54.46          54.46          54.46          0              0              0            
     26300   3999.5348     -35806.061      5673.8605      280538.4       161522.46      54.46          54.46          54.46          0              0              0            
     26400   3961.927      -35753.758      5620.5089      283008.18      161522.46      54.46          54.46          54.46          0              0              0            
     26500   4005.7617     -35815.99       5682.6941      280884.61      161522.46      54.46          54.46          54.46          0              0              0            
     26600   3997.1327     -35804.475      5670.4528      280635.94      161522.46      54.46          54.46          54.46          0              0              0            
     26700   4025.1406     -35846.073      5710.1855      280461.23      161522.46      54.46          54.46          54.46          0              0              0            
     26800   3975.667      -35778.061      5640.0009      281822.02      161522.46      54.46          54.46          54.46          0              0              0            
     26900   3996.6449     -35809.622      5669.7608      281749.81      161522.46      54.46          54.46          54.46          0              0              0            
     27000   3991.1894     -35802.847      5662.0213      281437.04      161522.46      54.46          54.46          54.46          0              0              0            
     27100   4003.008      -35819.722      5678.7876      280625.61      161522.46      54.46          54.46          54.46          0              0              0            
     27200   3999.4853     -35813.961      5673.7902      280662.05      161522.46      54.46          54.46          54.46          0              0              0            
     27300   3985.3064     -35792.353      5653.6755      281062.31      161522.46      54.46          54.46          54.46          0              0              0            
     27400   4018.4879     -35837.467      5700.7479      280060.66      161522.46      54.46          54.46          54.46          0              0              0            
     27500   4010.1621     -35823.708      5688.9366      280246.75      161522.46      54.46          54.46          54.46          0              0              0            
     27600   3986.1647     -35788.416      5654.8932      281333.36      161522.46      54.46          54.46          54.46          0              0              0            
     27700   3999.4609     -35806.488      5673.7556      280244.25      161522.46      54.46          54.46          54.46          0              0              0            
     27800   3980.9762     -35780.123      5647.5326      282156.26      161522.46      54.46          54.46          54.46          0              0              0            
     27900   4000.7878     -35807.497      5675.6379      281073.07      161522.46      54.46          54.46          54.46          0              0              0            
     28000   3995.469      -35798.355      5668.0926      281406.66      161522.46      54.46          54.46          54.46          0              0              0            
     28100   4000.7704     -35803.472      5675.6133      281474.91      161522.46      54.46          54.46          54.46          0              0              0            
     28200   4011.5781     -35816.441      5690.9454      281186.74      161522.46      54.46          54.46          54.46          0              0              0            
     28300   4021.3136     -35828.48       5704.7565      280309.85      161522.46      54.46          54.46          54.46          0              0              0            
     28400   3986.5847     -35779.144      5655.4889      281453.21      161522.46      54.46          54.46          54.46          0              0              0            
     28500   3990.4505     -35784.631      5660.9732      282094.05      161522.46      54.46          54.46          54.46          0              0              0            
     28600   4002.1753     -35800.845      5677.6064      281073.04      161522.46      54.46          54.46          54.46          0              0              0            
     28700   4003.1166     -35801.449      5678.9417      281576.46      161522.46      54.46          54.46          54.46          0              0              0            
     28800   4008.1336     -35808.481      5686.059       280880.67      161522.46      54.46          54.46          54.46          0              0              0            
     28900   3997.117      -35793.055      5670.4304      281653.37      161522.46      54.46          54.46          54.46          0              0              0            
     29000   3960.8719     -35742.505      5619.012       283165.73      161522.46      54.46          54.46          54.46          0              0              0            
     29100   4000.0023     -35797.584      5674.5237      281323.48      161522.46      54.46          54.46          54.46          0              0              0            
     29200   3998.1016     -35794.295      5671.8272      281047.46      161522.46      54.46          54.46          54.46          0              0              0            
     29300   3990.4652     -35782.71       5660.9941      281905.56      161522.46      54.46          54.46          54.46          0              0              0            
     29400   4055.4199     -35874.628      5753.1407      280031.67      161522.46      54.46          54.46          54.46          0              0              0            
     29500   3990.5752     -35782.71       5661.1501      281811.7       161522.46      54.46          54.46          54.46          0              0              0            
     29600   4002.5409     -35799.414      5678.1249      281223.77      161522.46      54.46          54.46          54.46          0              0              0            
     29700   4025.0233     -35832.562      5710.0192      280017.56      161522.46      54.46          54.46          54.46          0              0              0            
     29800   4008.6225     -35811.14       5686.7525      281399.1       161522.46      54.46          54.46          54.46          0              0              0            
     29900   3982.2598     -35775.624      5649.3535      282142         161522.46      54.46          54.46          54.46          0              0              0            
     30000   3968.2491     -35757.258      5629.4777      282565.23      161522.46      54.46          54.46          54.46          0              0              0            
     30100   3984.2176     -35780.998      5652.131       281528.28      161522.46      54.46          54.46          54.46          0              0              0            
     30200   3999.9564     -35804.279      5674.4585      281566.42      161522.46      54.46          54.46          54.46          0              0              0            
     30300   3998.9082     -35803.954      5672.9714      282352.76      161522.46      54.46          54.46          54.46          0              0              0            
     30400   4036.3033     -35857.425      5726.0213      279581.28      161522.46      54.46          54.46          54.46          0              0              0            
     30500   4019.2165     -35833.791      5701.7815      281710.08      161522.46      54.46          54.46          54.46          0              0              0            
     30600   3964.0998     -35756.317      5623.5913      283561.88      161522.46      54.46          54.46          54.46          0              0              0            
     30700   3995.5378     -35801.413      5668.1901      281532.56      161522.46      54.46          54.46          54.46          0              0              0            
     30800   3987.485      -35790.656      5656.7662      282029.09      161522.46      54.46          54.46          54.46          0              0              0            
     30900   4013.5091     -35827.193      5693.6848      280883.47      161522.46      54.46          54.46          54.46          0              0              0            
     31000   4010.9959     -35823.476      5690.1195      281404.31      161522.46      54.46          54.46          54.46          0              0              0            
     31100   3972.4432     -35769.428      5635.4275      282331.64      161522.46      54.46          54.46          54.46          0              0              0            
     31200   3944.3109     -35729.634      5595.5181      282840.37      161522.46      54.46          54.46          54.46          0              0              0            
     31300   4032.0264     -35854.743      5719.954       279966.34      161522.46      54.46          54.46          54.46          0              0              0            
     31400   3984.3568     -35788.121      5652.3285      281513.64      161522.46      54.46          54.46          54.46          0              0              0            
     31500   3957.4476     -35750.344      5614.1543      283150.29      161522.46      54.46          54.46          54.46          0              0              0            
     31600   3998.8434     -35809.49       5672.8796      280490.42      161522.46      54.46          54.46          54.46          0              0              0            
     31700   3990.1975     -35799.059      5660.6142      281588.72      161522.46      54.46          54.46          54.46          0              0              0            
     31800   3982.3623     -35789.158      5649.499       281559.16      161522.46      54.46          54.46          54.46          0              0              0            
     31900   3983.4729     -35789.255      5651.0745      281685.99      161522.46      54.46          54.46          54.46          0              0              0            
     32000   3981.4032     -35784.559      5648.1384      281469.41      161522.46      54.46          54.46          54.46          0              0              0            
     32100   4011.1012     -35825.369      5690.2689      280801.44      161522.46      54.46          54.46          54.46          0              0              0            
     32200   4003.926      -35814.917      5680.09        280592.55      161522.46      54.46          54.46          54.46          0              0              0            
     32300   4019.5719     -35837.536      5702.2856      280494.4       161522.46      54.46          54.46          54.46          0              0              0            
     32400   3994.1907     -35802.125      5666.2791      282061.64      161522.46      54.46          54.46          54.46          0              0              0            
     32500   3995.9448     -35805.344      5668.7676      281178.92      161522.46      54.46          54.46          54.46          0              0              0            
     32600   3977.371      -35780.154      5642.4181      281304.37      161522.46      54.46          54.46          54.46          0              0              0            
     32700   4003.8715     -35818.499      5680.0125      281093.17      161522.46      54.46          54.46          54.46          0              0              0            
     32800   4029.2243     -35855.514      5715.9788      279318.46      161522.46      54.46          54.46          54.46          0              0              0            
     32900   3969.562      -35772.162      5631.3401      282331.24      161522.46      54.46          54.46          54.46          0              0              0            
     33000   3992.8781     -35805.583      5664.417       280986.41      161522.46      54.46          54.46          54.46          0              0              0            
     33100   3985.3535     -35794.205      5653.7424      281185.52      161522.46      54.46          54.46          54.46          0              0              0            
     33200   4009.5296     -35826.66       5688.0394      280628.33      161522.46      54.46          54.46          54.46          0              0              0            
     33300   3963.5145     -35758.742      5622.761       282386.23      161522.46      54.46          54.46          54.46          0              0              0            
     33400   3998.5754     -35804.48       5672.4994      280974.17      161522.46      54.46          54.46          54.46          0              0              0            
     33500   4031.2824     -35847.82       5718.8985      280556.56      161522.46      54.46          54.46          54.46          0              0              0            
     33600   3974.7538     -35766.773      5638.7054      282604.1       161522.46      54.46          54.46          54.46          0              0              0            
     33700   3984.2757     -35779.706      5652.2134      282017.14      161522.46      54.46          54.46          54.46          0              0              0            
     33800   3985.8286     -35780.948      5654.4164      282481.92      161522.46      54.46          54.46          54.46          0              0              0            
     33900   3994.1856     -35792.537      5666.2719      282084.13      161522.46      54.46          54.46          54.46          0              0              0            
     34000   4004.2681     -35807.477      5680.5752      281386.32      161522.46      54.46          54.46          54.46          0              0              0            
     34100   3956.7032     -35741.149      5613.0983      282866.3       161522.46      54.46          54.46          54.46          0              0              0            
     34200   4013.636      -35822.968      5693.8648      280965.85      161522.46      54.46          54.46          54.46          0              0              0            
     34300   3976.1507     -35770.033      5640.6871      282072.69      161522.46      54.46          54.46          54.46          0              0              0            
     34400   4037.6583     -35856.433      5727.9435      279773.59      161522.46      54.46          54.46          54.46          0              0              0            
     34500   3986.5733     -35783.512      5655.4728      282073.44      161522.46      54.46          54.46          54.46          0              0              0            
     34600   4022.4614     -35834.202      5706.3848      280178.72      161522.46      54.46          54.46          54.46          0              0              0            
     34700   3999.1339     -35801.625      5673.2916      281931.65      161522.46      54.46          54.46          54.46          0              0              0            
     34800   3999.6204     -35802.535      5673.9819      281474.13      161522.46      54.46          54.46          54.46          0              0              0            
     34900   4017.035      -35827.75       5698.6867      281112.37      161522.46      54.46          54.46          54.46          0              0              0            
     35000   4014.1257     -35824.021      5694.5596      280969.39      161522.46      54.46          54.46          54.46          0              0              0            
     35100   3975.9185     -35770.337      5640.3576      282490.48      161522.46      54.46          54.46          54.46          0              0              0            
     35200   4026.3429     -35841.588      5711.8911      280000.72      161522.46      54.46          54.46          54.46          0              0              0            
     35300   4041.2892     -35862.98       5733.0945      279478.75      161522.46      54.46          54.46          54.46          0              0              0            
     35400   3982.0607     -35779.005      5649.0711      281634.72      161522.46      54.46          54.46          54.46          0              0              0            
     35500   4026.6132     -35842.58       5712.2747      280406.94      161522.46      54.46          54.46          54.46          0              0              0            
     35600   3987.8126     -35787.821      5657.231       281794.01      161522.46      54.46          54.46          54.46          0              0              0            
     35700   3999.343      -35804.811      5673.5884      281415.81      161522.46      54.46          54.46          54.46          0              0              0            
     35800   3961.9816     -35752.383      5620.5864      282675.71      161522.46      54.46          54.46          54.46          0              0              0            
     35900   4025.907      -35843.075      5711.2728      279925.97      161522.46      54.46          54.46          54.46          0              0              0            
     36000   3990.8352     -35793.52       5661.519       280782.32      161522.46      54.46          54.46          54.46          0              0              0            
     36100   3999.476      -35804.479      5673.777       280946.22      161522.46      54.46          54.46          54.46          0              0              0            
     36200   4041.538      -35862.409      5733.4475      279677.43      161522.46      54.46          54.46          54.46          0              0              0            
     36300   3978.8437     -35771.982      5644.5074      282055.74      161522.46      54.46          54.46          54.46          0              0              0            
     36400   3946.2971     -35723.951      5598.3359      283108.7       161522.46      54.46          54.46          54.46          0              0              0            
     36500   3997.6203     -35793.82       5671.1445      281795.74      161522.46      54.46          54.46          54.46          0              0              0            
     36600   4019.996      -35824.011      5702.8873      281164.63      161522.46      54.46          54.46          54.46          0              0              0            
     36700   3991.2816     -35783.1        5662.1522      281668.07      161522.46      54.46          54.46          54.46          0              0              0            
     36800   4003.8357     -35801.331      5679.9618      281579.09      161522.46      54.46          54.46          54.46          0              0              0            
     36900   3988.7214     -35780.264      5658.5202      281277.78      161522.46      54.46          54.46          54.46          0              0              0            
     37000   3978.1607     -35765.732      5643.5384      282490.19      161522.46      54.46          54.46          54.46          0              0              0            
     37100   4004.372      -35804.112      5680.7226      280793.64      161522.46      54.46          54.46          54.46          0              0              0            
     37200   3994.212      -35790.54       5666.3093      281469.87      161522.46      54.46          54.46          54.46          0              0              0            
     37300   3988.2348     -35782.899      5657.8298      281749.39      161522.46      54.46          54.46          54.46          0              0              0            
     37400   4010.4047     -35815.458      5689.2807      280681.55      161522.46      54.46          54.46          54.46          0              0              0            
     37500   3982.3345     -35777.435      5649.4596      282412.01      161522.46      54.46          54.46          54.46          0              0              0            
     37600   4065.1852     -35897.3        5766.9941      279315.47      161522.46      54.46          54.46          54.46          0              0              0            
     37700   3967.6218     -35762.11       5628.5876      282415.76      161522.46      54.46          54.46          54.46          0              0              0            
     37800   3983.5806     -35785.547      5651.2273      281650.53      161522.46      54.46          54.46          54.46          0              0              0            
     37900   3987.9168     -35790.962      5657.3787      282057.08      161522.46      54.46          54.46          54.46          0              0              0            
     38000   3980.3365     -35779.002      5646.6252      282168.26      161522.46      54.46          54.46          54.46          0              0              0            
     38100   3997.5283     -35802.035      5671.014       281330.18      161522.46      54.46          54.46          54.46          0              0              0            
     38200   4034.8744     -35853.914      5723.9942      279749.59      161522.46      54.46          54.46          54.46          0              0              0            
     38300   4021.8651     -35835.188      5705.5388      280421.05      161522.46      54.46          54.46          54.46          0              0              0            
     38400   3964.0969     -35753.684      5623.5872      283154.54      161522.46      54.46          54.46          54.46          0              0              0            
     38500   3965.2247     -35755.592      5625.187       283141.41      161522.46      54.46          54.46          54.46          0              0              0            
     38600   3989.9412     -35790.381      5660.2507      281816.09      161522.46      54.46          54.46          54.46          0              0              0            
     38700   3995.432      -35797.929      5668.0401      281548.72      161522.46      54.46          54.46          54.46          0              0              0            
     38800   3983.4548     -35780.929      5651.0488      281881.55      161522.46      54.46          54.46          54.46          0              0              0            
     38900   4011.4625     -35820.05       5690.7814      280728.16      161522.46      54.46          54.46          54.46          0              0              0            
     39000   4014.4048     -35824.063      5694.9554      281087.57      161522.46      54.46          54.46          54.46          0              0              0            
     39100   3984.4185     -35781.974      5652.416       281795.15      161522.46      54.46          54.46          54.46          0              0              0            
     39200   4013.4024     -35822.466      5693.5334      280580.83      161522.46      54.46          54.46          54.46          0              0              0            
     39300   4045.8136     -35868.601      5739.5129      279215.48      161522.46      54.46          54.46          54.46          0              0              0            
     39400   4011.5135     -35821.302      5690.8537      280908.67      161522.46      54.46          54.46          54.46          0              0              0            
     39500   3994.5821     -35798.982      5666.8343      281661.21      161522.46      54.46          54.46          54.46          0              0              0            
     39600   4037.0436     -35860.399      5727.0715      280256.77      161522.46      54.46          54.46          54.46          0              0              0            
     39700   3980.4996     -35780.522      5646.8565      282105.91      161522.46      54.46          54.46          54.46          0              0              0            
     39800   4021.1131     -35838.264      5704.4721      280223.45      161522.46      54.46          54.46          54.46          0              0              0            
     39900   4014.9151     -35829.18       5695.6793      280327.82      161522.46      54.46          54.46          54.46          0              0              0            
     40000   3965.1801     -35757.817      5625.1238      283109.03      161522.46      54.46          54.46          54.46          0              0              0            
     40100   3993.1728     -35795.866      5664.8352      282089.81      161522.46      54.46          54.46          54.46          0              0              0            
     40200   3981.7056     -35777.683      5648.5673      282380.49      161522.46      54.46          54.46          54.46          0              0              0            
     40300   3980.1553     -35773.391      5646.3681      281693.68      161522.46      54.46          54.46          54.46          0              0              0            
     40400   4020.3988     -35828.251      5703.4587      280609.58      161522.46      54.46          54.46          54.46          0              0              0            
     40500   4001.8308     -35800.827      5677.1176      281565.7       161522.46      54.46          54.46          54.46          0              0              0            
     40600   3976.8811     -35765.199      5641.7231      282229.46      161522.46      54.46          54.46          54.46          0              0              0            
     40700   4017.7786     -35823.325      5699.7416      280592.49      161522.46      54.46          54.46          54.46          0              0              0            
     40800   3995.8748     -35794.081      5668.6682      281297.37      161522.46      54.46          54.46          54.46          0              0              0            
     40900   3990.4584     -35787.738      5660.9844      282333.88      161522.46      54.46          54.46          54.46          0              0              0            
     41000   4011.1865     -35817.697      5690.3899      280618.55      161522.46      54.46          54.46          54.46          0              0              0            
     41100   4020.7866     -35831.679      5704.0089      280385.49      161522.46      54.46          54.46          54.46          0              0              0            
     41200   4014.0686     -35823.561      5694.4785      280375.99      161522.46      54.46          54.46          54.46          0              0              0            
     41300   4012.6893     -35823.478      5692.5218      280349.53      161522.46      54.46          54.46          54.46          0              0              0            
     41400   4015.0251     -35829.178      5695.8355      280611.22      161522.46      54.46          54.46          54.46          0              0              0            
     41500   4007.5429     -35821.209      5685.221       280982.49      161522.46      54.46          54.46          54.46          0              0              0            
     41600   4015.7899     -35834.491      5696.9203      280420.55      161522.46      54.46          54.46          54.46          0              0              0            
     41700   4024.6794     -35848.392      5709.5313      279944.84      161522.46      54.46          54.46          54.46          0              0              0            
     41800   4005.1884     -35821.548      5681.8808      280839.27      161522.46      54.46          54.46          54.46          0              0              0            
     41900   3998.8212     -35812.808      5672.8481      280861.74      161522.46      54.46          54.46          54.46          0              0              0            
     42000   3970.2791     -35773.289      5632.3574      282345.27      161522.46      54.46          54.46          54.46          0              0              0            
     42100   4006.6695     -35824.744      5683.982       280773.81      161522.46      54.46          54.46          54.46          0              0              0            
     42200   4059.6663     -35899.511      5759.1647      278544.66      161522.46      54.46          54.46          54.46          0              0              0            
     42300   3992.1387     -35803.839      5663.3681      281044.65      161522.46      54.46          54.46          54.46          0              0              0            
     42400   3996.6074     -35810.065      5669.7075      281308.2       161522.46      54.46          54.46          54.46          0              0              0            
     42500   4006.3103     -35824.835      5683.4724      280255.95      161522.46      54.46          54.46          54.46          0              0              0            
     42600   3997.0548     -35813.071      5670.3422      281032.21      161522.46      54.46          54.46          54.46          0              0              0            
     42700   3993.0675     -35809.045      5664.6858      280688.42      161522.46      54.46          54.46          54.46          0              0              0            
     42800   3964.0197     -35768.642      5623.4776      282936.33      161522.46      54.46          54.46          54.46          0              0              0            
     42900   4020.2404     -35847.474      5703.234       280182.72      161522.46      54.46          54.46          54.46          0              0              0            
     43000   3993.5198     -35808.144      5665.3274      281287.82      161522.46      54.46          54.46          54.46          0              0              0            
     43100   3985.5253     -35794.226      5653.9861      281489.28      161522.46      54.46          54.46          54.46          0              0              0            
     43200   4000.6071     -35812.664      5675.3816      280920.52      161522.46      54.46          54.46          54.46          0              0              0            
     43300   3973.638      -35771.561      5637.1225      282065.06      161522.46      54.46          54.46          54.46          0              0              0            
     43400   3999.2391     -35805.635      5673.441       281025.54      161522.46      54.46          54.46          54.46          0              0              0            
     43500   3985.7667     -35785.015      5654.3286      282016.35      161522.46      54.46          54.46          54.46          0              0              0            
[...]
   1989600   3991.0397     -35790.303      5661.809       282138.98      161522.46      54.46          54.46          54.46          0              0              0            
   1989700   3992.0528     -35792.593      5663.2462      281074.28      161522.46      54.46          54.46          54.46          0              0              0            
   1989800   4001.812      -35806.467      5677.091       281495.95      161522.46      54.46          54.46          54.46          0              0              0            
   1989900   3973.4843     -35766.1        5636.9044      281843.6       161522.46      54.46          54.46          54.46          0              0              0            
   1990000   4016.3776     -35826.224      5697.7541      281064.88      161522.46      54.46          54.46          54.46          0              0              0            
   1990100   3977.4617     -35771.46       5642.5469      282654.33      161522.46      54.46          54.46          54.46          0              0              0            
   1990200   3994.8844     -35796.357      5667.2632      281320.71      161522.46      54.46          54.46          54.46          0              0              0            
   1990300   4017.4038     -35828.55       5699.2099      280022.71      161522.46      54.46          54.46          54.46          0              0              0            
   1990400   3982.4903     -35778.757      5649.6805      281556.37      161522.46      54.46          54.46          54.46          0              0              0            
   1990500   3996.3207     -35797.255      5669.3008      281059.64      161522.46      54.46          54.46          54.46          0              0              0            
   1990600   4039.0382     -35856.775      5729.9011      280080.43      161522.46      54.46          54.46          54.46          0              0              0            
   1990700   3992.7709     -35790.76       5664.2649      282306.73      161522.46      54.46          54.46          54.46          0              0              0            
   1990800   3986.0288     -35780.552      5654.7005      281849.41      161522.46      54.46          54.46          54.46          0              0              0            
   1990900   3990.3657     -35786.426      5660.8529      281809.58      161522.46      54.46          54.46          54.46          0              0              0            
   1991000   3999.7624     -35800.155      5674.1834      280810.72      161522.46      54.46          54.46          54.46          0              0              0            
   1991100   3992.2497     -35791.332      5663.5256      282271.29      161522.46      54.46          54.46          54.46          0              0              0            
   1991200   3983.7914     -35779.987      5651.5263      281937.57      161522.46      54.46          54.46          54.46          0              0              0            
   1991300   3967.2806     -35756.019      5628.1037      282565.65      161522.46      54.46          54.46          54.46          0              0              0            
   1991400   3998.8022     -35799.271      5672.8211      281475.22      161522.46      54.46          54.46          54.46          0              0              0            
   1991500   4015.4242     -35821.867      5696.4016      280503.36      161522.46      54.46          54.46          54.46          0              0              0            
   1991600   4028.8376     -35840.079      5715.4303      280231.8       161522.46      54.46          54.46          54.46          0              0              0            
   1991700   3977.8365     -35768.244      5643.0785      281747.59      161522.46      54.46          54.46          54.46          0              0              0            
   1991800   3986.5106     -35780.328      5655.3838      281520.96      161522.46      54.46          54.46          54.46          0              0              0            
   1991900   4015.7844     -35821.462      5696.9126      280996.03      161522.46      54.46          54.46          54.46          0              0              0            
   1992000   3988.5015     -35782.601      5658.2082      282084.93      161522.46      54.46          54.46          54.46          0              0              0            
   1992100   4002.7239     -35802.75       5678.3846      281325.47      161522.46      54.46          54.46          54.46          0              0              0            
   1992200   4049.1171     -35869.422      5744.1993      279681.88      161522.46      54.46          54.46          54.46          0              0              0            
   1992300   3996.201      -35795.833      5669.131       281352.43      161522.46      54.46          54.46          54.46          0              0              0            
   1992400   3992.589      -35792.032      5664.0069      281952.79      161522.46      54.46          54.46          54.46          0              0              0            
   1992500   4007.3651     -35813.608      5684.9687      281221.79      161522.46      54.46          54.46          54.46          0              0              0            
   1992600   4022.964      -35836.6        5707.0977      280387.18      161522.46      54.46          54.46          54.46          0              0              0            
   1992700   3986.8087     -35785.692      5655.8068      281881.89      161522.46      54.46          54.46          54.46          0              0              0            
   1992800   4025.8927     -35839.995      5711.2525      280081.19      161522.46      54.46          54.46          54.46          0              0              0            
   1992900   3977.0051     -35769.239      5641.8992      282640.31      161522.46      54.46          54.46          54.46          0              0              0            
   1993000   4002.4151     -35803.867      5677.9464      281305.9       161522.46      54.46          54.46          54.46          0              0              0            
   1993100   4003.446      -35804.975      5679.4089      282074.48      161522.46      54.46          54.46          54.46          0              0              0            
   1993200   4036.3234     -35851.987      5726.0499      279984.55      161522.46      54.46          54.46          54.46          0              0              0            
   1993300   4035.5267     -35851.423      5724.9196      280080.71      161522.46      54.46          54.46          54.46          0              0              0            
   1993400   3992.6905     -35791.342      5664.1509      281746.75      161522.46      54.46          54.46          54.46          0              0              0            
   1993500   4000.0593     -35801.889      5674.6045      281536.33      161522.46      54.46          54.46          54.46          0              0              0            
   1993600   4016.7036     -35825.976      5698.2166      280754.05      161522.46      54.46          54.46          54.46          0              0              0            
   1993700   4004.0599     -35808.487      5680.2798      281217.01      161522.46      54.46          54.46          54.46          0              0              0            
   1993800   3989.0245     -35786.805      5658.9502      281517.14      161522.46      54.46          54.46          54.46          0              0              0            
   1993900   4006.5669     -35810.616      5683.8364      280440.69      161522.46      54.46          54.46          54.46          0              0              0            
   1994000   4035.558      -35849.445      5724.964       279799.95      161522.46      54.46          54.46          54.46          0              0              0            
   1994100   3997.6919     -35794.238      5671.2461      281652.99      161522.46      54.46          54.46          54.46          0              0              0            
   1994200   4033.3203     -35843.799      5721.7896      280068.74      161522.46      54.46          54.46          54.46          0              0              0            
   1994300   4007.0466     -35805.742      5684.5169      281756.8       161522.46      54.46          54.46          54.46          0              0              0            
   1994400   4019.5862     -35822.861      5702.306       280369.66      161522.46      54.46          54.46          54.46          0              0              0            
   1994500   3974.318      -35758.154      5638.0871      282519.22      161522.46      54.46          54.46          54.46          0              0              0            
   1994600   4022.6839     -35824.553      5706.7005      280863.16      161522.46      54.46          54.46          54.46          0              0              0            
   1994700   4023.4643     -35823.666      5707.8075      280662.45      161522.46      54.46          54.46          54.46          0              0              0            
   1994800   4042.5737     -35850.398      5734.9167      280465.15      161522.46      54.46          54.46          54.46          0              0              0            
   1994900   3998.9975     -35788.429      5673.0981      282480.31      161522.46      54.46          54.46          54.46          0              0              0            
   1995000   4013.1123     -35808.488      5693.1218      281496.17      161522.46      54.46          54.46          54.46          0              0              0            
   1995100   3995.8168     -35783.325      5668.586       282323.45      161522.46      54.46          54.46          54.46          0              0              0            
   1995200   4002.9508     -35791.865      5678.7064      281746.77      161522.46      54.46          54.46          54.46          0              0              0            
   1995300   3990.2002     -35773.125      5660.6181      281959.57      161522.46      54.46          54.46          54.46          0              0              0            
   1995400   4022.7021     -35819.508      5706.7263      280882.68      161522.46      54.46          54.46          54.46          0              0              0            
   1995500   4016.214      -35811.043      5697.5221      281288.78      161522.46      54.46          54.46          54.46          0              0              0            
   1995600   4008.1408     -35800.93       5686.0691      281560.09      161522.46      54.46          54.46          54.46          0              0              0            
   1995700   4010.753      -35807.596      5689.7748      281473.91      161522.46      54.46          54.46          54.46          0              0              0            
   1995800   4007.2332     -35805.411      5684.7817      280884.63      161522.46      54.46          54.46          54.46          0              0              0            
   1995900   4019.9635     -35826.589      5702.8412      280984.55      161522.46      54.46          54.46          54.46          0              0              0            
   1996000   4026.1294     -35838.538      5711.5883      280677.92      161522.46      54.46          54.46          54.46          0              0              0            
   1996100   4021.8298     -35835.355      5705.4888      280651.14      161522.46      54.46          54.46          54.46          0              0              0            
   1996200   3987.373      -35789.075      5656.6074      281757.58      161522.46      54.46          54.46          54.46          0              0              0            
   1996300   3961.0405     -35752.983      5619.2512      281950.74      161522.46      54.46          54.46          54.46          0              0              0            
   1996400   4011.2691     -35824.181      5690.507       281341.57      161522.46      54.46          54.46          54.46          0              0              0            
   1996500   4052.0742     -35881.631      5748.3943      279365.87      161522.46      54.46          54.46          54.46          0              0              0            
   1996600   3990.1381     -35793.895      5660.5299      281610.76      161522.46      54.46          54.46          54.46          0              0              0            
   1996700   4028.4925     -35848.755      5714.9407      279918.28      161522.46      54.46          54.46          54.46          0              0              0            
   1996800   4031.546      -35854.127      5719.2724      279953.42      161522.46      54.46          54.46          54.46          0              0              0            
   1996900   4006.504      -35819.581      5683.7471      279940.94      161522.46      54.46          54.46          54.46          0              0              0            
   1997000   3994.0055     -35803.406      5666.0163      281361         161522.46      54.46          54.46          54.46          0              0              0            
   1997100   3998.6689     -35811.794      5672.6321      280927.74      161522.46      54.46          54.46          54.46          0              0              0            
   1997200   4002.2184     -35818.31       5677.6675      280444.29      161522.46      54.46          54.46          54.46          0              0              0            
   1997300   3949.7651     -35743.536      5603.2557      282827.4       161522.46      54.46          54.46          54.46          0              0              0            
   1997400   3979.3107     -35782.553      5645.1699      281838.43      161522.46      54.46          54.46          54.46          0              0              0            
   1997500   3990.7885     -35794.744      5661.4526      281235.94      161522.46      54.46          54.46          54.46          0              0              0            
   1997600   3996.2834     -35799.518      5669.2479      281724.95      161522.46      54.46          54.46          54.46          0              0              0            
   1997700   4026.1477     -35840.241      5711.6143      280244.01      161522.46      54.46          54.46          54.46          0              0              0            
   1997800   3999.5534     -35801.09       5673.8869      281169.19      161522.46      54.46          54.46          54.46          0              0              0            
   1997900   4039.8895     -35857.001      5731.1088      280315.85      161522.46      54.46          54.46          54.46          0              0              0            
   1998000   3966.1834     -35750.61       5626.5472      283456.65      161522.46      54.46          54.46          54.46          0              0              0            
   1998100   3982.6822     -35771.161      5649.9528      282956.17      161522.46      54.46          54.46          54.46          0              0              0            
   1998200   3972.6166     -35755.154      5635.6734      283278.83      161522.46      54.46          54.46          54.46          0              0              0            
   1998300   3991.5273     -35780.553      5662.5008      282358.66      161522.46      54.46          54.46          54.46          0              0              0            
   1998400   3987.8484     -35775.426      5657.2817      282304.33      161522.46      54.46          54.46          54.46          0              0              0            
   1998500   4046.1226     -35858.866      5739.9513      279984.07      161522.46      54.46          54.46          54.46          0              0              0            
   1998600   4006.0713     -35804.854      5683.1333      280826.82      161522.46      54.46          54.46          54.46          0              0              0            
   1998700   3999.2079     -35798.559      5673.3967      281271.89      161522.46      54.46          54.46          54.46          0              0              0            
   1998800   3976.1681     -35768.807      5640.7117      282514.77      161522.46      54.46          54.46          54.46          0              0              0            
   1998900   3993.6776     -35795.851      5665.5512      281577.4       161522.46      54.46          54.46          54.46          0              0              0            
   1999000   4032.1452     -35851.665      5720.1225      279938.66      161522.46      54.46          54.46          54.46          0              0              0            
   1999100   4031.6474     -35852.708      5719.4164      280141.89      161522.46      54.46          54.46          54.46          0              0              0            
   1999200   3970.8799     -35767.936      5633.2098      282159.62      161522.46      54.46          54.46          54.46          0              0              0            
   1999300   3987.9727     -35791.814      5657.4581      282253.93      161522.46      54.46          54.46          54.46          0              0              0            
   1999400   3984.1162     -35785.156      5651.9872      281512.64      161522.46      54.46          54.46          54.46          0              0              0            
   1999500   4021.8438     -35837.362      5705.5087      280250.02      161522.46      54.46          54.46          54.46          0              0              0            
   1999600   3987.6957     -35787.809      5657.0651      281577.53      161522.46      54.46          54.46          54.46          0              0              0            
   1999700   4020.7742     -35833.481      5703.9913      280356.48      161522.46      54.46          54.46          54.46          0              0              0            
   1999800   4015.4722     -35825.583      5696.4697      280671.44      161522.46      54.46          54.46          54.46          0              0              0            
   1999900   3986.439      -35785.768      5655.2823      282052.9       161522.46      54.46          54.46          54.46          0              0              0            
   2000000   3982.2339     -35780.687      5649.3169      282376.88      161522.46      54.46          54.46          54.46          0              0              0            
Loop time of 25540.8 on 4 procs for 2000000 steps with 10976 atoms

Performance: 13.531 ns/day, 1.774 hours/ns, 78.306 timesteps/s, 859.487 katom-step/s
18.2% CPU use with 1 MPI tasks x 4 OpenMP threads

MPI task timing breakdown:
Section |  min time  |  avg time  |  max time  |%varavg| %total
---------------------------------------------------------------
Pair    | 23934      | 23934      | 23934      |   0.0 | 93.71
Neigh   | 600        | 600        | 600        |   0.0 |  2.35
Comm    | 231.04     | 231.04     | 231.04     |   0.0 |  0.90
Output  | 1.6003     | 1.6003     | 1.6003     |   0.0 |  0.01
Modify  | 696.52     | 696.52     | 696.52     |   0.0 |  2.73
Other   |            | 77.82      |            |       |  0.30

Nlocal:          10976 ave       10976 max       10976 min
Histogram: 1 0 0 0 0 0 0 0 0 0
Nghost:          11421 ave       11421 max       11421 min
Histogram: 1 0 0 0 0 0 0 0 0 0
Neighs:         604702 ave      604702 max      604702 min
Histogram: 1 0 0 0 0 0 0 0 0 0

Total # of neighbors = 604702
Ave neighs/atom = 55.093112
Neighbor list builds = 97806
Dangerous builds = 0
write_restart Restart.final
System init for write_restart ...
No /omp style for force computation currently active
Total wall time: 7:05:40
